<?xml version="1.0" encoding="UTF-8"?>

<!-- generated on Mon 01 Jul 2019 11:24:35 AM CEST by Eclipse SUMO GUI Version 1.2.0
<configuration xmlns:xsi="http://www.w3.org/2001/XMLSchema-instance" xsi:noNamespaceSchemaLocation="http://sumo.dlr.de/xsd/sumoConfiguration.xsd">

    <input>
        <net-file value="NetFile.net.xml"/>
        <route-files value="TempLoad.rou.xml"/>
    </input>

    <output>
        <emission-output value="results/emission7.xml"/>
        <tripinfo-output value="results/tripinfo7.xml"/>
    </output>

    <time>
        <begin value="0"/>
    </time>

    <report>
        <verbose value="true"/>
        <no-step-log value="true"/>
    </report>

    <traci_server>
        <remote-port value="8873"/>
    </traci_server>

    <gui_only>
        <gui-settings-file value="nylandsvejPlainTest.set.xml"/>
    </gui_only>

</configuration>
-->

<emission-export xmlns:xsi="http://www.w3.org/2001/XMLSchema-instance" xsi:noNamespaceSchemaLocation="http://sumo.dlr.de/xsd/emission_file.xsd">
    <timestep time="0.00">
        <vehicle id="car0" eclass="HBEFA3/PC_G_EU4" CO2="2558.32" CO="0.00" HC="0.00" NOx="0.76" PMx="0.02" fuel="1.10" electricity="0.00" noise="66.01" route="route43" type="Car" waiting="0.00" lane="Road4_0" pos="3.10" speed="16.00" angle="90.00" x="3.10" y="492.00"/>
        <vehicle id="car1" eclass="HBEFA3/PC_G_EU4" CO2="2558.32" CO="0.00" HC="0.00" NOx="0.76" PMx="0.02" fuel="1.10" electricity="0.00" noise="66.01" route="route21" type="Car" waiting="0.00" lane="Road2_1" pos="3.10" speed="16.00" angle="0.00" x="504.80" y="3.10"/>
    </timestep>
    <timestep time="1.00">
        <vehicle id="car0" eclass="HBEFA3/PC_G_EU4" CO2="0.00" CO="0.00" HC="0.00" NOx="0.00" PMx="0.00" fuel="0.00" electricity="0.00" noise="65.13" route="route43" type="Car" waiting="0.00" lane="Road4_0" pos="18.76" speed="15.66" angle="90.00" x="18.76" y="492.00"/>
        <vehicle id="car1" eclass="HBEFA3/PC_G_EU4" CO2="0.00" CO="0.00" HC="0.00" NOx="0.00" PMx="0.00" fuel="0.00" electricity="0.00" noise="65.65" route="route21" type="Car" waiting="0.00" lane="Road2_1" pos="18.96" speed="15.86" angle="0.00" x="504.80" y="18.96"/>
    </timestep>
    <timestep time="2.00">
        <vehicle id="car0" eclass="HBEFA3/PC_G_EU4" CO2="3848.45" CO="14.25" HC="0.15" NOx="1.36" PMx="0.05" fuel="1.65" electricity="0.00" noise="66.69" route="route43" type="Car" waiting="0.00" lane="Road4_0" pos="34.73" speed="15.97" angle="90.00" x="34.73" y="492.00"/>
        <vehicle id="car1" eclass="HBEFA3/PC_G_EU4" CO2="0.00" CO="0.00" HC="0.00" NOx="0.00" PMx="0.00" fuel="0.00" electricity="0.00" noise="65.52" route="route21" type="Car" waiting="0.00" lane="Road2_1" pos="34.68" speed="15.72" angle="0.00" x="504.80" y="34.68"/>
        <vehicle id="car2" eclass="HBEFA3/PC_G_EU4" CO2="2558.32" CO="0.00" HC="0.00" NOx="0.76" PMx="0.02" fuel="1.10" electricity="0.00" noise="66.01" route="route34" type="Car" waiting="0.00" lane="Road3_1" pos="3.10" speed="16.00" angle="270.00" x="996.90" y="504.80"/>
    </timestep>
    <timestep time="3.00">
        <vehicle id="car0" eclass="HBEFA3/PC_G_EU4" CO2="0.00" CO="0.00" HC="0.00" NOx="0.00" PMx="0.00" fuel="0.00" electricity="0.00" noise="65.48" route="route43" type="Car" waiting="0.00" lane="Road4_0" pos="50.51" speed="15.78" angle="90.00" x="50.51" y="492.00"/>
        <vehicle id="car1" eclass="HBEFA3/PC_G_EU4" CO2="2667.81" CO="0.00" HC="0.02" NOx="0.81" PMx="0.02" fuel="1.15" electricity="0.00" noise="65.92" route="route21" type="Car" waiting="0.00" lane="Road2_1" pos="50.43" speed="15.75" angle="0.00" x="504.80" y="50.43"/>
        <vehicle id="car2" eclass="HBEFA3/PC_G_EU4" CO2="0.00" CO="0.00" HC="0.00" NOx="0.00" PMx="0.00" fuel="0.00" electricity="0.00" noise="65.38" route="route34" type="Car" waiting="0.00" lane="Road3_1" pos="18.86" speed="15.76" angle="270.00" x="981.14" y="504.80"/>
        <vehicle id="car3" eclass="HBEFA3/PC_G_EU4" CO2="2558.32" CO="0.00" HC="0.00" NOx="0.76" PMx="0.02" fuel="1.10" electricity="0.00" noise="66.01" route="route43" type="Car" waiting="0.00" lane="Road4_2" pos="3.10" speed="16.00" angle="90.00" x="3.10" y="498.40"/>
        <vehicle id="car4" eclass="HBEFA3/PC_G_EU4" CO2="2558.32" CO="0.00" HC="0.00" NOx="0.76" PMx="0.02" fuel="1.10" electricity="0.00" noise="66.01" route="route12" type="Car" waiting="0.00" lane="Road1_2" pos="3.10" speed="16.00" angle="180.00" x="498.40" y="996.90"/>
    </timestep>
    <timestep time="4.00">
        <vehicle id="car0" eclass="HBEFA3/PC_G_EU4" CO2="0.00" CO="0.00" HC="0.00" NOx="0.00" PMx="0.00" fuel="0.00" electricity="0.00" noise="65.13" route="route43" type="Car" waiting="0.00" lane="Road4_0" pos="66.01" speed="15.50" angle="90.00" x="66.01" y="492.00"/>
        <vehicle id="car1" eclass="HBEFA3/PC_G_EU4" CO2="3582.15" CO="8.66" HC="0.12" NOx="1.24" PMx="0.04" fuel="1.54" electricity="0.00" noise="66.55" route="route21" type="Car" waiting="0.00" lane="Road2_1" pos="66.43" speed="16.00" angle="0.00" x="504.80" y="66.43"/>
        <vehicle id="car2" eclass="HBEFA3/PC_G_EU4" CO2="2898.33" CO="0.00" HC="0.04" NOx="0.92" PMx="0.02" fuel="1.25" electricity="0.00" noise="66.09" route="route34" type="Car" waiting="0.00" lane="Road3_1" pos="34.71" speed="15.85" angle="270.00" x="965.29" y="504.80"/>
        <vehicle id="car3" eclass="HBEFA3/PC_G_EU4" CO2="0.00" CO="0.00" HC="0.00" NOx="0.00" PMx="0.00" fuel="0.00" electricity="0.00" noise="65.40" route="route43" type="Car" waiting="0.00" lane="Road4_2" pos="18.87" speed="15.77" angle="90.00" x="18.87" y="498.40"/>
        <vehicle id="car4" eclass="HBEFA3/PC_G_EU4" CO2="0.00" CO="0.00" HC="0.00" NOx="0.00" PMx="0.00" fuel="0.00" electricity="0.00" noise="65.05" route="route12" type="Car" waiting="0.00" lane="Road1_2" pos="18.73" speed="15.63" angle="180.00" x="498.40" y="981.27"/>
        <vehicle id="car6" eclass="HBEFA3/PC_G_EU4" CO2="2558.32" CO="0.00" HC="0.00" NOx="0.76" PMx="0.02" fuel="1.10" electricity="0.00" noise="66.01" route="route21" type="Car" waiting="0.00" lane="Road2_1" pos="3.10" speed="16.00" angle="0.00" x="504.80" y="3.10"/>
        <vehicle id="car7" eclass="HBEFA3/PC_G_EU4" CO2="2558.32" CO="0.00" HC="0.00" NOx="0.76" PMx="0.02" fuel="1.10" electricity="0.00" noise="66.01" route="route21" type="Car" waiting="0.00" lane="Road2_2" pos="3.10" speed="16.00" angle="0.00" x="501.60" y="3.10"/>
    </timestep>
    <timestep time="5.00">
        <vehicle id="car0" eclass="HBEFA3/PC_G_EU4" CO2="2972.42" CO="0.00" HC="0.06" NOx="0.96" PMx="0.03" fuel="1.28" electricity="0.00" noise="66.00" route="route43" type="Car" waiting="0.00" lane="Road4_0" pos="81.62" speed="15.61" angle="90.00" x="81.62" y="492.00"/>
        <vehicle id="car1" eclass="HBEFA3/PC_G_EU4" CO2="0.00" CO="0.00" HC="0.00" NOx="0.00" PMx="0.00" fuel="0.00" electricity="0.00" noise="64.98" route="route21" type="Car" waiting="0.00" lane="Road2_1" pos="82.02" speed="15.60" angle="0.00" x="504.80" y="82.02"/>
        <vehicle id="car10" eclass="HBEFA3/PC_G_EU4" CO2="2558.32" CO="0.00" HC="0.00" NOx="0.76" PMx="0.02" fuel="1.10" electricity="0.00" noise="66.01" route="route12" type="Car" waiting="0.00" lane="Road1_2" pos="3.10" speed="16.00" angle="180.00" x="498.40" y="996.90"/>
        <vehicle id="car2" eclass="HBEFA3/PC_G_EU4" CO2="0.00" CO="0.00" HC="0.00" NOx="0.00" PMx="0.00" fuel="0.00" electricity="0.00" noise="65.03" route="route34" type="Car" waiting="0.00" lane="Road3_1" pos="50.22" speed="15.51" angle="270.00" x="949.78" y="504.80"/>
        <vehicle id="car3" eclass="HBEFA3/PC_G_EU4" CO2="0.00" CO="0.00" HC="0.00" NOx="0.00" PMx="0.00" fuel="0.00" electricity="0.00" noise="65.70" route="route43" type="Car" waiting="0.00" lane="Road4_2" pos="34.58" speed="15.71" angle="90.00" x="34.58" y="498.40"/>
        <vehicle id="car4" eclass="HBEFA3/PC_G_EU4" CO2="2529.22" CO="0.00" HC="0.00" NOx="0.75" PMx="0.02" fuel="1.09" electricity="0.00" noise="65.77" route="route12" type="Car" waiting="0.00" lane="Road1_2" pos="34.36" speed="15.63" angle="180.00" x="498.40" y="965.64"/>
        <vehicle id="car5" eclass="HBEFA3/PC_G_EU4" CO2="2558.32" CO="0.00" HC="0.00" NOx="0.76" PMx="0.02" fuel="1.10" electricity="0.00" noise="66.01" route="route43" type="Car" waiting="0.00" lane="Road4_2" pos="3.10" speed="16.00" angle="90.00" x="3.10" y="498.40"/>
        <vehicle id="car6" eclass="HBEFA3/PC_G_EU4" CO2="0.00" CO="0.00" HC="0.00" NOx="0.00" PMx="0.00" fuel="0.00" electricity="0.00" noise="64.84" route="route21" type="Car" waiting="0.00" lane="Road2_1" pos="18.64" speed="15.54" angle="0.00" x="504.80" y="18.64"/>
        <vehicle id="car7" eclass="HBEFA3/PC_G_EU4" CO2="0.00" CO="0.00" HC="0.00" NOx="0.00" PMx="0.00" fuel="0.00" electricity="0.00" noise="65.00" route="route21" type="Car" waiting="0.00" lane="Road2_2" pos="18.71" speed="15.61" angle="0.00" x="501.60" y="18.71"/>
        <vehicle id="car8" eclass="HBEFA3/PC_G_EU4" CO2="2558.32" CO="0.00" HC="0.00" NOx="0.76" PMx="0.02" fuel="1.10" electricity="0.00" noise="66.01" route="route12" type="Car" waiting="0.00" lane="Road1_0" pos="3.10" speed="16.00" angle="180.00" x="492.00" y="996.90"/>
        <vehicle id="car9" eclass="HBEFA3/PC_G_EU4" CO2="2558.32" CO="0.00" HC="0.00" NOx="0.76" PMx="0.02" fuel="1.10" electricity="0.00" noise="66.01" route="route34" type="Car" waiting="0.00" lane="Road3_1" pos="3.10" speed="16.00" angle="270.00" x="996.90" y="504.80"/>
    </timestep>
    <timestep time="6.00">
        <vehicle id="car0" eclass="HBEFA3/PC_G_EU4" CO2="0.00" CO="0.00" HC="0.00" NOx="0.00" PMx="0.00" fuel="0.00" electricity="0.00" noise="65.47" route="route43" type="Car" waiting="0.00" lane="Road4_0" pos="97.14" speed="15.51" angle="90.00" x="97.14" y="492.00"/>
        <vehicle id="car1" eclass="HBEFA3/PC_G_EU4" CO2="0.00" CO="0.00" HC="0.00" NOx="0.00" PMx="0.00" fuel="0.00" electricity="0.00" noise="65.58" route="route21" type="Car" waiting="0.00" lane="Road2_1" pos="97.56" speed="15.54" angle="0.00" x="504.80" y="97.56"/>
        <vehicle id="car10" eclass="HBEFA3/PC_G_EU4" CO2="0.00" CO="0.00" HC="0.00" NOx="0.00" PMx="0.00" fuel="0.00" electricity="0.00" noise="65.18" route="route12" type="Car" waiting="0.00" lane="Road1_2" pos="18.78" speed="15.68" angle="180.00" x="498.40" y="981.22"/>
        <vehicle id="car2" eclass="HBEFA3/PC_G_EU4" CO2="3274.44" CO="3.65" HC="0.09" NOx="1.10" PMx="0.03" fuel="1.41" electricity="0.00" noise="66.21" route="route34" type="Car" waiting="0.00" lane="Road3_1" pos="65.92" speed="15.70" angle="270.00" x="934.08" y="504.80"/>
        <vehicle id="car3" eclass="HBEFA3/PC_G_EU4" CO2="3676.43" CO="10.67" HC="0.13" NOx="1.28" PMx="0.04" fuel="1.58" electricity="0.00" noise="66.60" route="route43" type="Car" waiting="0.00" lane="Road4_2" pos="50.56" speed="15.98" angle="90.00" x="50.56" y="498.40"/>
        <vehicle id="car4" eclass="HBEFA3/PC_G_EU4" CO2="2660.84" CO="0.00" HC="0.02" NOx="0.81" PMx="0.02" fuel="1.14" electricity="0.00" noise="65.86" route="route12" type="Car" waiting="0.00" lane="Road1_2" pos="50.02" speed="15.67" angle="180.00" x="498.40" y="949.98"/>
        <vehicle id="car5" eclass="HBEFA3/PC_G_EU4" CO2="0.00" CO="0.00" HC="0.00" NOx="0.00" PMx="0.00" fuel="0.00" electricity="0.00" noise="64.85" route="route43" type="Car" waiting="0.00" lane="Road4_2" pos="18.64" speed="15.54" angle="90.00" x="18.64" y="498.40"/>
        <vehicle id="car6" eclass="HBEFA3/PC_G_EU4" CO2="3686.47" CO="11.59" HC="0.14" NOx="1.29" PMx="0.05" fuel="1.58" electricity="0.00" noise="66.51" route="route21" type="Car" waiting="0.00" lane="Road2_1" pos="34.45" speed="15.82" angle="0.00" x="504.80" y="34.45"/>
        <vehicle id="car7" eclass="HBEFA3/PC_G_EU4" CO2="3819.21" CO="13.89" HC="0.15" NOx="1.35" PMx="0.05" fuel="1.64" electricity="0.00" noise="66.64" route="route21" type="Car" waiting="0.00" lane="Road2_2" pos="34.62" speed="15.91" angle="0.00" x="501.60" y="34.62"/>
        <vehicle id="car8" eclass="HBEFA3/PC_G_EU4" CO2="0.00" CO="0.00" HC="0.00" NOx="0.00" PMx="0.00" fuel="0.00" electricity="0.00" noise="65.40" route="route12" type="Car" waiting="0.00" lane="Road1_0" pos="18.87" speed="15.77" angle="180.00" x="492.00" y="981.13"/>
        <vehicle id="car9" eclass="HBEFA3/PC_G_EU4" CO2="0.00" CO="0.00" HC="0.00" NOx="0.00" PMx="0.00" fuel="0.00" electricity="0.00" noise="64.88" route="route34" type="Car" waiting="0.00" lane="Road3_1" pos="18.65" speed="15.55" angle="270.00" x="981.35" y="504.80"/>
    </timestep>
    <timestep time="7.00">
        <vehicle id="car0" eclass="HBEFA3/PC_G_EU4" CO2="2906.17" CO="0.00" HC="0.05" NOx="0.93" PMx="0.02" fuel="1.25" electricity="0.00" noise="65.96" route="route43" type="Car" waiting="0.00" lane="Road4_0" pos="112.74" speed="15.61" angle="90.00" x="112.74" y="492.00"/>
        <vehicle id="car1" eclass="HBEFA3/PC_G_EU4" CO2="3734.04" CO="12.51" HC="0.14" NOx="1.31" PMx="0.05" fuel="1.61" electricity="0.00" noise="66.55" route="route21" type="Car" waiting="0.00" lane="Road2_1" pos="113.39" speed="15.83" angle="0.00" x="504.80" y="113.39"/>
        <vehicle id="car10" eclass="HBEFA3/PC_G_EU4" CO2="2882.14" CO="0.00" HC="0.04" NOx="0.91" PMx="0.02" fuel="1.24" electricity="0.00" noise="66.04" route="route12" type="Car" waiting="0.00" lane="Road1_2" pos="34.55" speed="15.77" angle="180.00" x="498.40" y="965.45"/>
        <vehicle id="car11" eclass="HBEFA3/PC_G_EU4" CO2="2558.32" CO="0.00" HC="0.00" NOx="0.76" PMx="0.02" fuel="1.10" electricity="0.00" noise="66.01" route="route12" type="Car" waiting="0.00" lane="Road1_1" pos="3.10" speed="16.00" angle="180.00" x="495.20" y="996.90"/>
        <vehicle id="car2" eclass="HBEFA3/PC_G_EU4" CO2="3100.89" CO="0.00" HC="0.07" NOx="1.02" PMx="0.03" fuel="1.33" electricity="0.00" noise="66.19" route="route34" type="Car" waiting="0.00" lane="Road3_1" pos="81.75" speed="15.83" angle="270.00" x="918.25" y="504.80"/>
        <vehicle id="car3" eclass="HBEFA3/PC_G_EU4" CO2="0.00" CO="0.00" HC="0.00" NOx="0.00" PMx="0.00" fuel="0.00" electricity="0.00" noise="65.10" route="route43" type="Car" waiting="0.00" lane="Road4_2" pos="66.19" speed="15.63" angle="90.00" x="66.19" y="498.40"/>
        <vehicle id="car4" eclass="HBEFA3/PC_G_EU4" CO2="2922.43" CO="0.00" HC="0.05" NOx="0.93" PMx="0.03" fuel="1.26" electricity="0.00" noise="66.06" route="route12" type="Car" waiting="0.00" lane="Road1_2" pos="65.78" speed="15.76" angle="180.00" x="498.40" y="934.22"/>
        <vehicle id="car5" eclass="HBEFA3/PC_G_EU4" CO2="3743.74" CO="12.68" HC="0.14" NOx="1.32" PMx="0.05" fuel="1.61" electricity="0.00" noise="66.56" route="route43" type="Car" waiting="0.00" lane="Road4_2" pos="34.48" speed="15.84" angle="90.00" x="34.48" y="498.40"/>
        <vehicle id="car6" eclass="HBEFA3/PC_G_EU4" CO2="0.00" CO="0.00" HC="0.00" NOx="0.00" PMx="0.00" fuel="0.00" electricity="0.00" noise="65.39" route="route21" type="Car" waiting="0.00" lane="Road2_1" pos="50.08" speed="15.63" angle="0.00" x="504.80" y="50.08"/>
        <vehicle id="car7" eclass="HBEFA3/PC_G_EU4" CO2="0.00" CO="0.00" HC="0.00" NOx="0.00" PMx="0.00" fuel="0.00" electricity="0.00" noise="65.18" route="route21" type="Car" waiting="0.00" lane="Road2_2" pos="50.24" speed="15.62" angle="0.00" x="501.60" y="50.24"/>
        <vehicle id="car8" eclass="HBEFA3/PC_G_EU4" CO2="0.00" CO="0.00" HC="0.00" NOx="0.00" PMx="0.00" fuel="0.00" electricity="0.00" noise="65.28" route="route12" type="Car" waiting="0.00" lane="Road1_0" pos="34.42" speed="15.55" angle="180.00" x="492.00" y="965.58"/>
        <vehicle id="car9" eclass="HBEFA3/PC_G_EU4" CO2="4191.64" CO="21.41" HC="0.20" NOx="1.53" PMx="0.06" fuel="1.80" electricity="0.00" noise="66.88" route="route34" type="Car" waiting="0.00" lane="Road3_1" pos="34.60" speed="15.95" angle="270.00" x="965.40" y="504.80"/>
    </timestep>
    <timestep time="8.00">
        <vehicle id="car0" eclass="HBEFA3/PC_G_EU4" CO2="0.00" CO="0.00" HC="0.00" NOx="0.00" PMx="0.00" fuel="0.00" electricity="0.00" noise="65.65" route="route43" type="Car" waiting="0.00" lane="Road4_0" pos="128.32" speed="15.58" angle="90.00" x="128.32" y="492.00"/>
        <vehicle id="car1" eclass="HBEFA3/PC_G_EU4" CO2="0.00" CO="0.00" HC="0.00" NOx="0.00" PMx="0.00" fuel="0.00" electricity="0.00" noise="65.05" route="route21" type="Car" waiting="0.00" lane="Road2_1" pos="128.90" speed="15.50" angle="0.00" x="504.80" y="128.90"/>
        <vehicle id="car10" eclass="HBEFA3/PC_G_EU4" CO2="0.00" CO="0.00" HC="0.00" NOx="0.00" PMx="0.00" fuel="0.00" electricity="0.00" noise="65.17" route="route12" type="Car" waiting="0.00" lane="Road1_2" pos="50.06" speed="15.51" angle="180.00" x="498.40" y="949.94"/>
        <vehicle id="car11" eclass="HBEFA3/PC_G_EU4" CO2="0.00" CO="0.00" HC="0.00" NOx="0.00" PMx="0.00" fuel="0.00" electricity="0.00" noise="64.75" route="route12" type="Car" waiting="0.00" lane="Road1_1" pos="18.60" speed="15.50" angle="180.00" x="495.20" y="981.40"/>
        <vehicle id="car12" eclass="HBEFA3/PC_G_EU4" CO2="2558.32" CO="0.00" HC="0.00" NOx="0.76" PMx="0.02" fuel="1.10" electricity="0.00" noise="66.01" route="route43" type="Car" waiting="0.00" lane="Road4_0" pos="3.10" speed="16.00" angle="90.00" x="3.10" y="492.00"/>
        <vehicle id="car2" eclass="HBEFA3/PC_G_EU4" CO2="0.00" CO="0.00" HC="0.00" NOx="0.00" PMx="0.00" fuel="0.00" electricity="0.00" noise="65.23" route="route34" type="Car" waiting="0.00" lane="Road3_1" pos="97.33" speed="15.58" angle="270.00" x="902.67" y="504.80"/>
        <vehicle id="car3" eclass="HBEFA3/PC_G_EU4" CO2="3373.79" CO="5.07" HC="0.10" NOx="1.14" PMx="0.04" fuel="1.45" electricity="0.00" noise="66.35" route="route43" type="Car" waiting="0.00" lane="Road4_2" pos="82.03" speed="15.84" angle="90.00" x="82.03" y="498.40"/>
        <vehicle id="car4" eclass="HBEFA3/PC_G_EU4" CO2="0.00" CO="0.00" HC="0.00" NOx="0.00" PMx="0.00" fuel="0.00" electricity="0.00" noise="65.61" route="route12" type="Car" waiting="0.00" lane="Road1_2" pos="81.45" speed="15.67" angle="180.00" x="498.40" y="918.55"/>
        <vehicle id="car5" eclass="HBEFA3/PC_G_EU4" CO2="0.00" CO="0.00" HC="0.00" NOx="0.00" PMx="0.00" fuel="0.00" electricity="0.00" noise="65.65" route="route43" type="Car" waiting="0.00" lane="Road4_2" pos="50.23" speed="15.75" angle="90.00" x="50.23" y="498.40"/>
        <vehicle id="car6" eclass="HBEFA3/PC_G_EU4" CO2="3720.50" CO="11.87" HC="0.14" NOx="1.31" PMx="0.05" fuel="1.60" electricity="0.00" noise="66.58" route="route21" type="Car" waiting="0.00" lane="Road2_1" pos="66.00" speed="15.91" angle="0.00" x="504.80" y="66.00"/>
        <vehicle id="car7" eclass="HBEFA3/PC_G_EU4" CO2="3555.86" CO="8.69" HC="0.12" NOx="1.23" PMx="0.04" fuel="1.53" electricity="0.00" noise="66.47" route="route21" type="Car" waiting="0.00" lane="Road2_2" pos="66.11" speed="15.87" angle="0.00" x="501.60" y="66.11"/>
        <vehicle id="car8" eclass="HBEFA3/PC_G_EU4" CO2="4142.33" CO="20.45" HC="0.19" NOx="1.50" PMx="0.06" fuel="1.78" electricity="0.00" noise="66.85" route="route12" type="Car" waiting="0.00" lane="Road1_0" pos="50.35" speed="15.93" angle="180.00" x="492.00" y="949.65"/>
        <vehicle id="car9" eclass="HBEFA3/PC_G_EU4" CO2="0.00" CO="0.00" HC="0.00" NOx="0.00" PMx="0.00" fuel="0.00" electricity="0.00" noise="65.75" route="route34" type="Car" waiting="0.00" lane="Road3_1" pos="50.47" speed="15.86" angle="270.00" x="949.53" y="504.80"/>
    </timestep>
    <timestep time="9.00">
        <vehicle id="car0" eclass="HBEFA3/PC_G_EU4" CO2="0.00" CO="0.00" HC="0.00" NOx="0.00" PMx="0.00" fuel="0.00" electricity="0.00" noise="65.56" route="route43" type="Car" waiting="0.00" lane="Road4_0" pos="143.84" speed="15.52" angle="90.00" x="143.84" y="492.00"/>
        <vehicle id="car1" eclass="HBEFA3/PC_G_EU4" CO2="3572.52" CO="9.50" HC="0.13" NOx="1.24" PMx="0.04" fuel="1.54" electricity="0.00" noise="66.42" route="route21" type="Car" waiting="0.00" lane="Road2_1" pos="144.66" speed="15.76" angle="0.00" x="504.80" y="144.66"/>
        <vehicle id="car10" eclass="HBEFA3/PC_G_EU4" CO2="4309.36" CO="23.90" HC="0.21" NOx="1.58" PMx="0.06" fuel="1.85" electricity="0.00" noise="66.95" route="route12" type="Car" waiting="0.00" lane="Road1_2" pos="65.99" speed="15.93" angle="180.00" x="498.40" y="934.01"/>
        <vehicle id="car11" eclass="HBEFA3/PC_G_EU4" CO2="3068.95" CO="0.00" HC="0.07" NOx="1.01" PMx="0.03" fuel="1.32" electricity="0.00" noise="66.06" route="route12" type="Car" waiting="0.00" lane="Road1_1" pos="34.24" speed="15.64" angle="180.00" x="495.20" y="965.76"/>
        <vehicle id="car12" eclass="HBEFA3/PC_G_EU4" CO2="0.00" CO="0.00" HC="0.00" NOx="0.00" PMx="0.00" fuel="0.00" electricity="0.00" noise="65.89" route="route43" type="Car" waiting="0.00" lane="Road4_0" pos="19.05" speed="15.95" angle="90.00" x="19.05" y="492.00"/>
        <vehicle id="car13" eclass="HBEFA3/PC_G_EU4" CO2="2558.32" CO="0.00" HC="0.00" NOx="0.76" PMx="0.02" fuel="1.10" electricity="0.00" noise="66.01" route="route21" type="Car" waiting="0.00" lane="Road2_1" pos="3.10" speed="16.00" angle="0.00" x="504.80" y="3.10"/>
        <vehicle id="car14" eclass="HBEFA3/PC_G_EU4" CO2="2558.32" CO="0.00" HC="0.00" NOx="0.76" PMx="0.02" fuel="1.10" electricity="0.00" noise="66.01" route="route34" type="Car" waiting="0.00" lane="Road3_1" pos="3.10" speed="16.00" angle="270.00" x="996.90" y="504.80"/>
        <vehicle id="car15" eclass="HBEFA3/PC_G_EU4" CO2="2558.32" CO="0.00" HC="0.00" NOx="0.76" PMx="0.02" fuel="1.10" electricity="0.00" noise="66.01" route="route12" type="Car" waiting="0.00" lane="Road1_2" pos="3.10" speed="16.00" angle="180.00" x="498.40" y="996.90"/>
        <vehicle id="car16" eclass="HBEFA3/PC_G_EU4" CO2="2558.32" CO="0.00" HC="0.00" NOx="0.76" PMx="0.02" fuel="1.10" electricity="0.00" noise="66.01" route="route21" type="Car" waiting="0.00" lane="Road2_2" pos="3.10" speed="16.00" angle="0.00" x="501.60" y="3.10"/>
        <vehicle id="car2" eclass="HBEFA3/PC_G_EU4" CO2="3742.98" CO="12.51" HC="0.14" NOx="1.32" PMx="0.05" fuel="1.61" electricity="0.00" noise="66.58" route="route34" type="Car" waiting="0.00" lane="Road3_1" pos="113.20" speed="15.87" angle="270.00" x="886.80" y="504.80"/>
        <vehicle id="car3" eclass="HBEFA3/PC_G_EU4" CO2="2667.20" CO="0.00" HC="0.02" NOx="0.81" PMx="0.02" fuel="1.15" electricity="0.00" noise="65.98" route="route43" type="Car" waiting="0.00" lane="Road4_2" pos="97.89" speed="15.87" angle="90.00" x="97.89" y="498.40"/>
        <vehicle id="car4" eclass="HBEFA3/PC_G_EU4" CO2="3498.51" CO="7.35" HC="0.11" NOx="1.20" PMx="0.04" fuel="1.50" electricity="0.00" noise="66.45" route="route12" type="Car" waiting="0.00" lane="Road1_2" pos="97.36" speed="15.90" angle="180.00" x="498.40" y="902.64"/>
        <vehicle id="car5" eclass="HBEFA3/PC_G_EU4" CO2="0.00" CO="0.00" HC="0.00" NOx="0.00" PMx="0.00" fuel="0.00" electricity="0.00" noise="65.62" route="route43" type="Car" waiting="0.00" lane="Road4_2" pos="65.89" speed="15.66" angle="90.00" x="65.89" y="498.40"/>
        <vehicle id="car6" eclass="HBEFA3/PC_G_EU4" CO2="2552.74" CO="0.00" HC="0.00" NOx="0.75" PMx="0.02" fuel="1.10" electricity="0.00" noise="65.96" route="route21" type="Car" waiting="0.00" lane="Road2_1" pos="81.91" speed="15.91" angle="0.00" x="504.80" y="81.91"/>
        <vehicle id="car7" eclass="HBEFA3/PC_G_EU4" CO2="0.00" CO="0.00" HC="0.00" NOx="0.00" PMx="0.00" fuel="0.00" electricity="0.00" noise="65.88" route="route21" type="Car" waiting="0.00" lane="Road2_2" pos="81.96" speed="15.85" angle="0.00" x="501.60" y="81.96"/>
        <vehicle id="car8" eclass="HBEFA3/PC_G_EU4" CO2="0.00" CO="0.00" HC="0.00" NOx="0.00" PMx="0.00" fuel="0.00" electricity="0.00" noise="65.53" route="route12" type="Car" waiting="0.00" lane="Road1_0" pos="66.12" speed="15.77" angle="180.00" x="492.00" y="933.88"/>
        <vehicle id="car9" eclass="HBEFA3/PC_G_EU4" CO2="0.00" CO="0.00" HC="0.00" NOx="0.00" PMx="0.00" fuel="0.00" electricity="0.00" noise="65.57" route="route34" type="Car" waiting="0.00" lane="Road3_1" pos="66.20" speed="15.73" angle="270.00" x="933.80" y="504.80"/>
    </timestep>
    <timestep time="10.00">
        <vehicle id="car0" eclass="HBEFA3/PC_G_EU4" CO2="4045.78" CO="18.71" HC="0.18" NOx="1.46" PMx="0.05" fuel="1.74" electricity="0.00" noise="66.76" route="route43" type="Car" waiting="0.00" lane="Road4_0" pos="159.72" speed="15.88" angle="90.00" x="159.72" y="492.00"/>
        <vehicle id="car1" eclass="HBEFA3/PC_G_EU4" CO2="0.00" CO="0.00" HC="0.00" NOx="0.00" PMx="0.00" fuel="0.00" electricity="0.00" noise="65.62" route="route21" type="Car" waiting="0.00" lane="Road2_0" pos="160.33" speed="15.67" angle="0.00" x="508.00" y="160.33"/>
        <vehicle id="car10" eclass="HBEFA3/PC_G_EU4" CO2="0.00" CO="0.00" HC="0.00" NOx="0.00" PMx="0.00" fuel="0.00" electricity="0.00" noise="65.54" route="route12" type="Car" waiting="0.00" lane="Road1_2" pos="81.76" speed="15.77" angle="180.00" x="498.40" y="918.24"/>
        <vehicle id="car11" eclass="HBEFA3/PC_G_EU4" CO2="3020.07" CO="0.00" HC="0.06" NOx="0.98" PMx="0.03" fuel="1.30" electricity="0.00" noise="66.11" route="route12" type="Car" waiting="0.00" lane="Road1_1" pos="50.00" speed="15.76" angle="180.00" x="495.20" y="950.00"/>
        <vehicle id="car12" eclass="HBEFA3/PC_G_EU4" CO2="0.00" CO="0.00" HC="0.00" NOx="0.00" PMx="0.00" fuel="0.00" electricity="0.00" noise="64.96" route="route43" type="Car" waiting="0.00" lane="Road4_0" pos="34.61" speed="15.56" angle="90.00" x="34.61" y="492.00"/>
        <vehicle id="car13" eclass="HBEFA3/PC_G_EU4" CO2="0.00" CO="0.00" HC="0.00" NOx="0.00" PMx="0.00" fuel="0.00" electricity="0.00" noise="65.68" route="route21" type="Car" waiting="0.00" lane="Road2_1" pos="18.98" speed="15.88" angle="0.00" x="504.80" y="18.98"/>
        <vehicle id="car14" eclass="HBEFA3/PC_G_EU4" CO2="0.00" CO="0.00" HC="0.00" NOx="0.00" PMx="0.00" fuel="0.00" electricity="0.00" noise="65.55" route="route34" type="Car" waiting="0.00" lane="Road3_1" pos="18.93" speed="15.83" angle="270.00" x="981.07" y="504.80"/>
        <vehicle id="car15" eclass="HBEFA3/PC_G_EU4" CO2="0.00" CO="0.00" HC="0.00" NOx="0.00" PMx="0.00" fuel="0.00" electricity="0.00" noise="65.54" route="route12" type="Car" waiting="0.00" lane="Road1_2" pos="18.92" speed="15.82" angle="180.00" x="498.40" y="981.08"/>
        <vehicle id="car16" eclass="HBEFA3/PC_G_EU4" CO2="0.00" CO="0.00" HC="0.00" NOx="0.00" PMx="0.00" fuel="0.00" electricity="0.00" noise="64.98" route="route21" type="Car" waiting="0.00" lane="Road2_2" pos="18.70" speed="15.60" angle="0.00" x="501.60" y="18.70"/>
        <vehicle id="car2" eclass="HBEFA3/PC_G_EU4" CO2="0.00" CO="0.00" HC="0.00" NOx="0.00" PMx="0.00" fuel="0.00" electricity="0.00" noise="65.38" route="route34" type="Car" waiting="0.00" lane="Road3_1" pos="128.87" speed="15.67" angle="270.00" x="871.13" y="504.80"/>
        <vehicle id="car3" eclass="HBEFA3/PC_G_EU4" CO2="0.00" CO="0.00" HC="0.00" NOx="0.00" PMx="0.00" fuel="0.00" electricity="0.00" noise="65.50" route="route43" type="Car" waiting="0.00" lane="Road4_2" pos="113.60" speed="15.71" angle="90.00" x="113.60" y="498.40"/>
        <vehicle id="car4" eclass="HBEFA3/PC_G_EU4" CO2="0.00" CO="0.00" HC="0.00" NOx="0.00" PMx="0.00" fuel="0.00" electricity="0.00" noise="64.96" route="route12" type="Car" waiting="0.00" lane="Road1_2" pos="112.87" speed="15.52" angle="180.00" x="498.40" y="887.13"/>
        <vehicle id="car5" eclass="HBEFA3/PC_G_EU4" CO2="3152.61" CO="0.61" HC="0.08" NOx="1.04" PMx="0.03" fuel="1.36" electricity="0.00" noise="66.21" route="route43" type="Car" waiting="0.00" lane="Road4_2" pos="81.71" speed="15.81" angle="90.00" x="81.71" y="498.40"/>
        <vehicle id="car6" eclass="HBEFA3/PC_G_EU4" CO2="2622.57" CO="0.00" HC="0.01" NOx="0.79" PMx="0.02" fuel="1.13" electricity="0.00" noise="66.00" route="route21" type="Car" waiting="0.00" lane="Road2_1" pos="97.84" speed="15.93" angle="0.00" x="504.80" y="97.84"/>
        <vehicle id="car7" eclass="HBEFA3/PC_G_EU4" CO2="0.00" CO="0.00" HC="0.00" NOx="0.00" PMx="0.00" fuel="0.00" electricity="0.00" noise="65.84" route="route21" type="Car" waiting="0.00" lane="Road2_2" pos="97.78" speed="15.83" angle="0.00" x="501.60" y="97.78"/>
        <vehicle id="car8" eclass="HBEFA3/PC_G_EU4" CO2="3031.52" CO="0.00" HC="0.06" NOx="0.98" PMx="0.03" fuel="1.30" electricity="0.00" noise="66.19" route="route12" type="Car" waiting="0.00" lane="Road1_0" pos="82.01" speed="15.89" angle="180.00" x="492.00" y="917.99"/>
        <vehicle id="car9" eclass="HBEFA3/PC_G_EU4" CO2="2576.43" CO="0.00" HC="0.01" NOx="0.77" PMx="0.02" fuel="1.11" electricity="0.00" noise="65.87" route="route34" type="Car" waiting="0.00" lane="Road3_1" pos="81.95" speed="15.75" angle="270.00" x="918.05" y="504.80"/>
    </timestep>
    <timestep time="11.00">
        <vehicle id="car0" eclass="HBEFA3/PC_G_EU4" CO2="0.00" CO="0.00" HC="0.00" NOx="0.00" PMx="0.00" fuel="0.00" electricity="0.00" noise="65.79" route="route43" type="Car" waiting="0.00" lane="Road4_0" pos="175.55" speed="15.83" angle="90.00" x="175.55" y="492.00"/>
        <vehicle id="car1" eclass="HBEFA3/PC_G_EU4" CO2="0.00" CO="0.00" HC="0.00" NOx="0.00" PMx="0.00" fuel="0.00" electricity="0.00" noise="65.57" route="route21" type="Car" waiting="0.00" lane="Road2_0" pos="175.92" speed="15.59" angle="0.00" x="508.00" y="175.92"/>
        <vehicle id="car10" eclass="HBEFA3/PC_G_EU4" CO2="0.00" CO="0.00" HC="0.00" NOx="0.00" PMx="0.00" fuel="0.00" electricity="0.00" noise="65.29" route="route12" type="Car" waiting="0.00" lane="Road1_2" pos="97.33" speed="15.56" angle="180.00" x="498.40" y="902.67"/>
        <vehicle id="car11" eclass="HBEFA3/PC_G_EU4" CO2="0.00" CO="0.00" HC="0.00" NOx="0.00" PMx="0.00" fuel="0.00" electricity="0.00" noise="65.78" route="route12" type="Car" waiting="0.00" lane="Road1_1" pos="65.73" speed="15.73" angle="180.00" x="495.20" y="934.27"/>