<?xml version="1.0" encoding="UTF-8"?>

<!-- generated on Tue 02 Jul 2019 11:29:14 AM CEST by Eclipse SUMO GUI Version 1.2.0
<configuration xmlns:xsi="http://www.w3.org/2001/XMLSchema-instance" xsi:noNamespaceSchemaLocation="http://sumo.dlr.de/xsd/sumoConfiguration.xsd">

    <input>
        <net-file value="NetFile.net.xml"/>
        <route-files value="TrafficLoads/HighTrafficLoad.rou.xml"/>
    </input>

    <output>
        <emission-output value="results/emission7.xml"/>
        <tripinfo-output value="results/tripinfo7.xml"/>
    </output>

    <time>
        <begin value="0"/>
    </time>

    <report>
        <verbose value="true"/>
        <no-step-log value="true"/>
    </report>

    <traci_server>
        <remote-port value="8873"/>
    </traci_server>

    <gui_only>
        <gui-settings-file value="nylandsvejPlainTest.set.xml"/>
    </gui_only>

</configuration>
-->

<emission-export xmlns:xsi="http://www.w3.org/2001/XMLSchema-instance" xsi:noNamespaceSchemaLocation="http://sumo.dlr.de/xsd/emission_file.xsd">
    <timestep time="0.00"/>
    <timestep time="1.00"/>
    <timestep time="2.00">
        <vehicle id="car0" eclass="HBEFA3/PC_G_EU4" CO2="2624.72" CO="164.78" HC="0.81" NOx="1.20" PMx="0.07" fuel="1.13" electricity="0.00" noise="55.94" route="route34" type="Car" waiting="0.00" lane="Road3_0" pos="3.10" speed="0.00" angle="270.00" x="996.90" y="501.60"/>
    </timestep>
    <timestep time="3.00">
        <vehicle id="car0" eclass="HBEFA3/PC_G_EU4" CO2="2635.34" CO="155.32" HC="0.77" NOx="1.19" PMx="0.06" fuel="1.13" electricity="0.00" noise="58.59" route="route34" type="Car" waiting="0.00" lane="Road3_0" pos="3.65" speed="0.55" angle="270.00" x="996.35" y="501.60"/>
    </timestep>
    <timestep time="4.00">
        <vehicle id="car0" eclass="HBEFA3/PC_G_EU4" CO2="2681.59" CO="145.37" HC="0.72" NOx="1.20" PMx="0.06" fuel="1.15" electricity="0.00" noise="59.23" route="route34" type="Car" waiting="0.00" lane="Road3_0" pos="4.85" speed="1.20" angle="270.00" x="995.15" y="501.60"/>
        <vehicle id="car1" eclass="HBEFA3/PC_G_EU4" CO2="2624.72" CO="164.78" HC="0.81" NOx="1.20" PMx="0.07" fuel="1.13" electricity="0.00" noise="55.94" route="route21" type="Car" waiting="0.00" lane="Road2_0" pos="3.10" speed="0.00" angle="0.00" x="501.60" y="3.10"/>
    </timestep>
    <timestep time="5.00">
        <vehicle id="car0" eclass="HBEFA3/PC_G_EU4" CO2="2933.79" CO="134.66" HC="0.68" NOx="1.29" PMx="0.06" fuel="1.26" electricity="0.00" noise="61.09" route="route34" type="Car" waiting="0.00" lane="Road3_0" pos="7.03" speed="2.18" angle="270.00" x="992.97" y="501.60"/>
        <vehicle id="car1" eclass="HBEFA3/PC_G_EU4" CO2="2679.62" CO="152.81" HC="0.76" NOx="1.21" PMx="0.06" fuel="1.15" electricity="0.00" noise="59.54" route="route21" type="Car" waiting="0.00" lane="Road2_0" pos="3.85" speed="0.75" angle="0.00" x="501.60" y="3.85"/>
        <vehicle id="car3" eclass="HBEFA3/PC_G_EU4" CO2="2624.72" CO="164.78" HC="0.81" NOx="1.20" PMx="0.07" fuel="1.13" electricity="0.00" noise="55.94" route="route43" type="Car" waiting="0.00" lane="Road4_0" pos="3.10" speed="0.00" angle="90.00" x="3.10" y="498.40"/>
    </timestep>
    <timestep time="6.00">
        <vehicle id="car0" eclass="HBEFA3/PC_G_EU4" CO2="2845.48" CO="121.87" HC="0.62" NOx="1.23" PMx="0.06" fuel="1.22" electricity="0.00" noise="60.21" route="route34" type="Car" waiting="0.00" lane="Road3_0" pos="9.91" speed="2.88" angle="270.00" x="990.09" y="501.60"/>
        <vehicle id="car1" eclass="HBEFA3/PC_G_EU4" CO2="2865.25" CO="140.36" HC="0.71" NOx="1.27" PMx="0.06" fuel="1.23" electricity="0.00" noise="60.91" route="route21" type="Car" waiting="0.00" lane="Road2_0" pos="5.59" speed="1.73" angle="0.00" x="501.60" y="5.59"/>
        <vehicle id="car3" eclass="HBEFA3/PC_G_EU4" CO2="2649.21" CO="154.34" HC="0.76" NOx="1.20" PMx="0.06" fuel="1.14" electricity="0.00" noise="58.94" route="route43" type="Car" waiting="0.00" lane="Road4_0" pos="3.73" speed="0.63" angle="90.00" x="3.73" y="498.40"/>
        <vehicle id="car4" eclass="HBEFA3/PC_G_EU4" CO2="2624.72" CO="164.78" HC="0.81" NOx="1.20" PMx="0.07" fuel="1.13" electricity="0.00" noise="55.94" route="route34" type="Car" waiting="0.00" lane="Road3_0" pos="3.10" speed="0.00" angle="270.00" x="996.90" y="501.60"/>
    </timestep>
    <timestep time="7.00">
        <vehicle id="car0" eclass="HBEFA3/PC_G_EU4" CO2="3106.15" CO="114.18" HC="0.59" NOx="1.33" PMx="0.06" fuel="1.34" electricity="0.00" noise="61.35" route="route34" type="Car" waiting="0.00" lane="Road3_0" pos="13.67" speed="3.76" angle="270.00" x="986.33" y="501.60"/>
        <vehicle id="car1" eclass="HBEFA3/PC_G_EU4" CO2="2748.21" CO="127.93" HC="0.65" NOx="1.20" PMx="0.06" fuel="1.18" electricity="0.00" noise="59.64" route="route21" type="Car" waiting="0.00" lane="Road2_0" pos="7.95" speed="2.36" angle="0.00" x="501.60" y="7.95"/>
        <vehicle id="car3" eclass="HBEFA3/PC_G_EU4" CO2="2856.97" CO="141.93" HC="0.71" NOx="1.27" PMx="0.06" fuel="1.23" electricity="0.00" noise="60.95" route="route43" type="Car" waiting="0.00" lane="Road4_0" pos="5.35" speed="1.63" angle="90.00" x="5.35" y="498.40"/>
        <vehicle id="car4" eclass="HBEFA3/PC_G_EU4" CO2="2672.41" CO="153.12" HC="0.76" NOx="1.21" PMx="0.06" fuel="1.15" electricity="0.00" noise="59.42" route="route34" type="Car" waiting="0.00" lane="Road3_0" pos="3.83" speed="0.73" angle="270.00" x="996.17" y="501.60"/>
    </timestep>
    <timestep time="8.00">
        <vehicle id="car0" eclass="HBEFA3/PC_G_EU4" CO2="2969.07" CO="101.90" HC="0.53" NOx="1.25" PMx="0.05" fuel="1.28" electricity="0.00" noise="60.76" route="route34" type="Car" waiting="0.00" lane="Road3_0" pos="18.09" speed="4.42" angle="270.00" x="981.91" y="501.60"/>
        <vehicle id="car1" eclass="HBEFA3/PC_G_EU4" CO2="2927.43" CO="119.72" HC="0.61" NOx="1.26" PMx="0.06" fuel="1.26" electricity="0.00" noise="60.62" route="route21" type="Car" waiting="0.00" lane="Road2_0" pos="11.08" speed="3.13" angle="0.00" x="501.60" y="11.08"/>
        <vehicle id="car2" eclass="HBEFA3/PC_G_EU4" CO2="2624.72" CO="164.78" HC="0.81" NOx="1.20" PMx="0.07" fuel="1.13" electricity="0.00" noise="55.94" route="route21" type="Car" waiting="0.00" lane="Road2_0" pos="3.10" speed="0.00" angle="0.00" x="501.60" y="3.10"/>
        <vehicle id="car3" eclass="HBEFA3/PC_G_EU4" CO2="2801.56" CO="129.31" HC="0.65" NOx="1.22" PMx="0.06" fuel="1.20" electricity="0.00" noise="60.03" route="route43" type="Car" waiting="0.00" lane="Road4_0" pos="7.70" speed="2.34" angle="90.00" x="7.70" y="498.40"/>
        <vehicle id="car4" eclass="HBEFA3/PC_G_EU4" CO2="2747.09" CO="141.82" HC="0.71" NOx="1.22" PMx="0.06" fuel="1.18" electricity="0.00" noise="59.89" route="route34" type="Car" waiting="0.00" lane="Road3_0" pos="5.32" speed="1.49" angle="270.00" x="994.68" y="501.60"/>
        <vehicle id="car5" eclass="HBEFA3/PC_G_EU4" CO2="2624.72" CO="164.78" HC="0.81" NOx="1.20" PMx="0.07" fuel="1.13" electricity="0.00" noise="55.94" route="route12" type="Car" waiting="0.00" lane="Road1_0" pos="3.10" speed="0.00" angle="180.00" x="498.40" y="996.90"/>
    </timestep>
    <timestep time="9.00">
        <vehicle id="car0" eclass="HBEFA3/PC_G_EU4" CO2="3354.22" CO="98.01" HC="0.52" NOx="1.40" PMx="0.06" fuel="1.44" electricity="0.00" noise="62.05" route="route34" type="Car" waiting="0.00" lane="Road3_0" pos="23.37" speed="5.29" angle="270.00" x="976.63" y="501.60"/>
        <vehicle id="car1" eclass="HBEFA3/PC_G_EU4" CO2="2794.05" CO="108.64" HC="0.56" NOx="1.18" PMx="0.05" fuel="1.20" electricity="0.00" noise="59.97" route="route21" type="Car" waiting="0.00" lane="Road2_0" pos="14.78" speed="3.70" angle="0.00" x="501.60" y="14.78"/>
        <vehicle id="car2" eclass="HBEFA3/PC_G_EU4" CO2="2704.88" CO="151.89" HC="0.75" NOx="1.22" PMx="0.06" fuel="1.16" electricity="0.00" noise="59.95" route="route21" type="Car" waiting="0.00" lane="Road2_0" pos="3.94" speed="0.84" angle="0.00" x="501.60" y="3.94"/>
        <vehicle id="car3" eclass="HBEFA3/PC_G_EU4" CO2="2820.87" CO="119.54" HC="0.61" NOx="1.21" PMx="0.06" fuel="1.21" electricity="0.00" noise="60.06" route="route43" type="Car" waiting="0.00" lane="Road4_0" pos="10.70" speed="3.00" angle="90.00" x="10.70" y="498.40"/>
        <vehicle id="car4" eclass="HBEFA3/PC_G_EU4" CO2="2975.63" CO="130.98" HC="0.67" NOx="1.30" PMx="0.06" fuel="1.28" electricity="0.00" noise="61.18" route="route34" type="Car" waiting="0.00" lane="Road3_0" pos="7.79" speed="2.46" angle="270.00" x="992.21" y="501.60"/>
        <vehicle id="car5" eclass="HBEFA3/PC_G_EU4" CO2="2754.22" CO="150.58" HC="0.75" NOx="1.24" PMx="0.06" fuel="1.18" electricity="0.00" noise="60.61" route="route12" type="Car" waiting="0.00" lane="Road1_0" pos="4.08" speed="0.98" angle="180.00" x="498.40" y="995.92"/>
    </timestep>
    <timestep time="10.00">
        <vehicle id="car0" eclass="HBEFA3/PC_G_EU4" CO2="3296.68" CO="87.20" HC="0.47" NOx="1.36" PMx="0.06" fuel="1.42" electricity="0.00" noise="61.93" route="route34" type="Car" waiting="0.00" lane="Road3_0" pos="29.41" speed="6.03" angle="270.00" x="970.59" y="501.60"/>
        <vehicle id="car1" eclass="HBEFA3/PC_G_EU4" CO2="2987.03" CO="102.84" HC="0.54" NOx="1.26" PMx="0.05" fuel="1.28" electricity="0.00" noise="60.82" route="route21" type="Car" waiting="0.00" lane="Road2_0" pos="19.16" speed="4.38" angle="0.00" x="501.60" y="19.16"/>
        <vehicle id="car2" eclass="HBEFA3/PC_G_EU4" CO2="2651.12" CO="141.90" HC="0.71" NOx="1.18" PMx="0.06" fuel="1.14" electricity="0.00" noise="58.80" route="route21" type="Car" waiting="0.00" lane="Road2_0" pos="5.31" speed="1.37" angle="0.00" x="501.60" y="5.31"/>
        <vehicle id="car3" eclass="HBEFA3/PC_G_EU4" CO2="2810.05" CO="110.55" HC="0.57" NOx="1.19" PMx="0.05" fuel="1.21" electricity="0.00" noise="60.03" route="route43" type="Car" waiting="0.00" lane="Road4_0" pos="14.28" speed="3.59" angle="90.00" x="14.28" y="498.40"/>
        <vehicle id="car4" eclass="HBEFA3/PC_G_EU4" CO2="3011.68" CO="118.81" HC="0.61" NOx="1.30" PMx="0.06" fuel="1.29" electricity="0.00" noise="61.02" route="route34" type="Car" waiting="0.00" lane="Road3_0" pos="11.10" speed="3.31" angle="270.00" x="988.90" y="501.60"/>
        <vehicle id="car5" eclass="HBEFA3/PC_G_EU4" CO2="2666.52" CO="139.52" HC="0.70" NOx="1.18" PMx="0.06" fuel="1.15" electricity="0.00" noise="58.98" route="route12" type="Car" waiting="0.00" lane="Road1_0" pos="5.61" speed="1.53" angle="180.00" x="498.40" y="994.39"/>
    </timestep>
    <timestep time="11.00">
        <vehicle id="car0" eclass="HBEFA3/PC_G_EU4" CO2="3532.66" CO="82.20" HC="0.46" NOx="1.45" PMx="0.06" fuel="1.52" electricity="0.00" noise="62.60" route="route34" type="Car" waiting="0.00" lane="Road3_0" pos="36.24" speed="6.83" angle="270.00" x="963.76" y="501.60"/>
        <vehicle id="car1" eclass="HBEFA3/PC_G_EU4" CO2="3368.43" CO="98.66" HC="0.53" NOx="1.41" PMx="0.06" fuel="1.45" electricity="0.00" noise="62.10" route="route21" type="Car" waiting="0.00" lane="Road2_0" pos="24.42" speed="5.26" angle="0.00" x="501.60" y="24.42"/>
        <vehicle id="car2" eclass="HBEFA3/PC_G_EU4" CO2="2966.34" CO="132.53" HC="0.67" NOx="1.30" PMx="0.06" fuel="1.28" electricity="0.00" noise="61.20" route="route21" type="Car" waiting="0.00" lane="Road2_0" pos="7.66" speed="2.35" angle="0.00" x="501.60" y="7.66"/>
        <vehicle id="car3" eclass="HBEFA3/PC_G_EU4" CO2="3185.70" CO="106.12" HC="0.56" NOx="1.35" PMx="0.06" fuel="1.37" electricity="0.00" noise="61.55" route="route43" type="Car" waiting="0.00" lane="Road4_0" pos="18.72" speed="4.44" angle="90.00" x="18.72" y="498.40"/>
        <vehicle id="car4" eclass="HBEFA3/PC_G_EU4" CO2="2994.95" CO="107.83" HC="0.56" NOx="1.27" PMx="0.06" fuel="1.29" electricity="0.00" noise="60.84" route="route34" type="Car" waiting="0.00" lane="Road3_0" pos="15.13" speed="4.04" angle="270.00" x="984.87" y="501.60"/>
        <vehicle id="car5" eclass="HBEFA3/PC_G_EU4" CO2="2728.31" CO="130.83" HC="0.66" NOx="1.19" PMx="0.06" fuel="1.17" electricity="0.00" noise="59.51" route="route12" type="Car" waiting="0.00" lane="Road1_0" pos="7.76" speed="2.15" angle="180.00" x="498.40" y="992.24"/>
    </timestep>
    <timestep time="12.00">
        <vehicle id="car0" eclass="HBEFA3/PC_G_EU4" CO2="3950.96" CO="80.15" HC="0.46" NOx="1.62" PMx="0.07" fuel="1.70" electricity="0.00" noise="63.58" route="route34" type="Car" waiting="0.00" lane="Road3_0" pos="43.99" speed="7.75" angle="270.00" x="956.01" y="501.60"/>
        <vehicle id="car1" eclass="HBEFA3/PC_G_EU4" CO2="3724.41" CO="93.31" HC="0.51" NOx="1.55" PMx="0.07" fuel="1.60" electricity="0.00" noise="63.03" route="route21" type="Car" waiting="0.00" lane="Road2_0" pos="30.66" speed="6.25" angle="0.00" x="501.60" y="30.66"/>
        <vehicle id="car2" eclass="HBEFA3/PC_G_EU4" CO2="2821.21" CO="119.39" HC="0.61" NOx="1.21" PMx="0.06" fuel="1.21" electricity="0.00" noise="60.06" route="route21" type="Car" waiting="0.00" lane="Road2_0" pos="10.67" speed="3.01" angle="0.00" x="501.60" y="10.67"/>
        <vehicle id="car3" eclass="HBEFA3/PC_G_EU4" CO2="3305.40" CO="97.22" HC="0.52" NOx="1.38" PMx="0.06" fuel="1.42" electricity="0.00" noise="61.91" route="route43" type="Car" waiting="0.00" lane="Road4_0" pos="23.99" speed="5.27" angle="90.00" x="23.99" y="498.40"/>
        <vehicle id="car4" eclass="HBEFA3/PC_G_EU4" CO2="2816.42" CO="96.81" HC="0.50" NOx="1.17" PMx="0.05" fuel="1.21" electricity="0.00" noise="60.23" route="route34" type="Car" waiting="0.00" lane="Road3_0" pos="19.70" speed="4.56" angle="270.00" x="980.30" y="501.60"/>
        <vehicle id="car5" eclass="HBEFA3/PC_G_EU4" CO2="3051.48" CO="122.99" HC="0.63" NOx="1.32" PMx="0.06" fuel="1.31" electricity="0.00" noise="61.30" route="route12" type="Car" waiting="0.00" lane="Road1_0" pos="10.85" speed="3.09" angle="180.00" x="498.40" y="989.15"/>
        <vehicle id="car6" eclass="HBEFA3/PC_G_EU4" CO2="2624.72" CO="164.78" HC="0.81" NOx="1.20" PMx="0.07" fuel="1.13" electricity="0.00" noise="55.94" route="route12" type="Car" waiting="0.00" lane="Road1_0" pos="3.10" speed="0.00" angle="180.00" x="498.40" y="996.90"/>
        <vehicle id="car7" eclass="HBEFA3/PC_G_EU4" CO2="2624.72" CO="164.78" HC="0.81" NOx="1.20" PMx="0.07" fuel="1.13" electricity="0.00" noise="55.94" route="route43" type="Car" waiting="0.00" lane="Road4_0" pos="3.10" speed="0.00" angle="90.00" x="3.10" y="498.40"/>
    </timestep>
    <timestep time="13.00">
        <vehicle id="car0" eclass="HBEFA3/PC_G_EU4" CO2="4213.43" CO="75.43" HC="0.44" NOx="1.72" PMx="0.07" fuel="1.81" electricity="0.00" noise="64.17" route="route34" type="Car" waiting="0.00" lane="Road3_0" pos="52.68" speed="8.69" angle="270.00" x="947.32" y="501.60"/>
        <vehicle id="car1" eclass="HBEFA3/PC_G_EU4" CO2="3019.05" CO="72.46" HC="0.40" NOx="1.21" PMx="0.05" fuel="1.30" electricity="0.00" noise="61.43" route="route21" type="Car" waiting="0.00" lane="Road2_0" pos="37.43" speed="6.76" angle="0.00" x="501.60" y="37.43"/>
        <vehicle id="car2" eclass="HBEFA3/PC_G_EU4" CO2="3117.11" CO="112.64" HC="0.58" NOx="1.33" PMx="0.06" fuel="1.34" electricity="0.00" noise="61.37" route="route21" type="Car" waiting="0.00" lane="Road2_0" pos="14.55" speed="3.88" angle="0.00" x="501.60" y="14.55"/>
        <vehicle id="car3" eclass="HBEFA3/PC_G_EU4" CO2="3549.93" CO="90.80" HC="0.50" NOx="1.47" PMx="0.06" fuel="1.53" electricity="0.00" noise="62.59" route="route43" type="Car" waiting="0.00" lane="Road4_0" pos="30.15" speed="6.16" angle="90.00" x="30.15" y="498.40"/>
        <vehicle id="car4" eclass="HBEFA3/PC_G_EU4" CO2="3263.71" CO="95.27" HC="0.51" NOx="1.36" PMx="0.06" fuel="1.40" electricity="0.00" noise="61.78" route="route34" type="Car" waiting="0.00" lane="Road3_0" pos="25.05" speed="5.35" angle="270.00" x="974.95" y="501.60"/>
        <vehicle id="car5" eclass="HBEFA3/PC_G_EU4" CO2="2952.50" CO="110.39" HC="0.57" NOx="1.26" PMx="0.06" fuel="1.27" electricity="0.00" noise="60.67" route="route12" type="Car" waiting="0.00" lane="Road1_0" pos="14.65" speed="3.80" angle="180.00" x="498.40" y="985.35"/>
        <vehicle id="car6" eclass="HBEFA3/PC_G_EU4" CO2="2718.24" CO="151.48" HC="0.75" NOx="1.22" PMx="0.06" fuel="1.17" electricity="0.00" noise="60.14" route="route12" type="Car" waiting="0.00" lane="Road1_0" pos="3.98" speed="0.88" angle="180.00" x="498.40" y="996.02"/>
        <vehicle id="car7" eclass="HBEFA3/PC_G_EU4" CO2="2731.18" CO="151.13" HC="0.75" NOx="1.23" PMx="0.06" fuel="1.17" electricity="0.00" noise="60.32" route="route43" type="Car" waiting="0.00" lane="Road4_0" pos="4.02" speed="0.92" angle="90.00" x="4.02" y="498.40"/>
    </timestep>
    <timestep time="14.00">
        <vehicle id="car0" eclass="HBEFA3/PC_G_EU4" CO2="3534.79" CO="55.41" HC="0.33" NOx="1.38" PMx="0.05" fuel="1.52" electricity="0.00" noise="63.24" route="route34" type="Car" waiting="0.00" lane="Road3_0" pos="61.97" speed="9.29" angle="270.00" x="938.03" y="501.60"/>
        <vehicle id="car1" eclass="HBEFA3/PC_G_EU4" CO2="3383.75" CO="72.14" HC="0.41" NOx="1.36" PMx="0.05" fuel="1.45" electricity="0.00" noise="62.40" route="route21" type="Car" waiting="0.00" lane="Road2_0" pos="44.86" speed="7.43" angle="0.00" x="501.60" y="44.86"/>
        <vehicle id="car2" eclass="HBEFA3/PC_G_EU4" CO2="2955.41" CO="100.21" HC="0.52" NOx="1.24" PMx="0.05" fuel="1.27" electricity="0.00" noise="60.72" route="route21" type="Car" waiting="0.00" lane="Road2_0" pos="19.07" speed="4.52" angle="0.00" x="501.60" y="19.07"/>
        <vehicle id="car3" eclass="HBEFA3/PC_G_EU4" CO2="3359.48" CO="78.29" HC="0.43" NOx="1.37" PMx="0.05" fuel="1.44" electricity="0.00" noise="62.22" route="route43" type="Car" waiting="0.00" lane="Road4_0" pos="37.02" speed="6.86" angle="90.00" x="37.02" y="498.40"/>
        <vehicle id="car4" eclass="HBEFA3/PC_G_EU4" CO2="3690.15" CO="91.81" HC="0.50" NOx="1.54" PMx="0.06" fuel="1.59" electricity="0.00" noise="62.94" route="route34" type="Car" waiting="0.00" lane="Road3_0" pos="31.36" speed="6.31" angle="270.00" x="968.64" y="501.60"/>
        <vehicle id="car5" eclass="HBEFA3/PC_G_EU4" CO2="2811.30" CO="99.88" HC="0.52" NOx="1.17" PMx="0.05" fuel="1.21" electricity="0.00" noise="60.16" route="route12" type="Car" waiting="0.00" lane="Road1_0" pos="18.98" speed="4.33" angle="180.00" x="498.40" y="981.02"/>
        <vehicle id="car6" eclass="HBEFA3/PC_G_EU4" CO2="2648.22" CO="141.35" HC="0.70" NOx="1.18" PMx="0.06" fuel="1.14" electricity="0.00" noise="58.77" route="route12" type="Car" waiting="0.00" lane="Road1_0" pos="5.38" speed="1.40" angle="180.00" x="498.40" y="994.62"/>
        <vehicle id="car7" eclass="HBEFA3/PC_G_EU4" CO2="2708.11" CO="139.77" HC="0.70" NOx="1.20" PMx="0.06" fuel="1.16" electricity="0.00" noise="59.43" route="route43" type="Car" waiting="0.00" lane="Road4_0" pos="5.59" speed="1.57" angle="90.00" x="5.59" y="498.40"/>
    </timestep>
    <timestep time="15.00">
        <vehicle id="car0" eclass="HBEFA3/PC_G_EU4" CO2="4350.40" CO="64.11" HC="0.39" NOx="1.75" PMx="0.07" fuel="1.87" electricity="0.00" noise="64.66" route="route34" type="Car" waiting="0.00" lane="Road3_0" pos="72.10" speed="10.13" angle="270.00" x="927.90" y="501.60"/>
        <vehicle id="car1" eclass="HBEFA3/PC_G_EU4" CO2="3595.06" CO="68.56" HC="0.39" NOx="1.44" PMx="0.06" fuel="1.55" electricity="0.00" noise="62.98" route="route21" type="Car" waiting="0.00" lane="Road2_0" pos="53.00" speed="8.14" angle="0.00" x="501.60" y="53.00"/>
        <vehicle id="car10" eclass="HBEFA3/PC_G_EU4" CO2="2624.72" CO="164.78" HC="0.81" NOx="1.20" PMx="0.07" fuel="1.13" electricity="0.00" noise="55.94" route="route21" type="Car" waiting="0.00" lane="Road2_0" pos="3.10" speed="0.00" angle="0.00" x="501.60" y="3.10"/>
        <vehicle id="car2" eclass="HBEFA3/PC_G_EU4" CO2="3449.19" CO="98.00" HC="0.53" NOx="1.45" PMx="0.06" fuel="1.48" electricity="0.00" noise="62.33" route="route21" type="Car" waiting="0.00" lane="Road2_0" pos="24.51" speed="5.44" angle="0.00" x="501.60" y="24.51"/>
        <vehicle id="car3" eclass="HBEFA3/PC_G_EU4" CO2="3100.51" CO="66.83" HC="0.37" NOx="1.23" PMx="0.05" fuel="1.33" electricity="0.00" noise="61.82" route="route43" type="Car" waiting="0.00" lane="Road4_0" pos="44.40" speed="7.38" angle="90.00" x="44.40" y="498.40"/>
        <vehicle id="car4" eclass="HBEFA3/PC_G_EU4" CO2="3487.68" CO="78.54" HC="0.44" NOx="1.42" PMx="0.06" fuel="1.50" electricity="0.00" noise="62.53" route="route34" type="Car" waiting="0.00" lane="Road3_0" pos="38.42" speed="7.06" angle="270.00" x="961.58" y="501.60"/>
        <vehicle id="car5" eclass="HBEFA3/PC_G_EU4" CO2="3058.93" CO="95.62" HC="0.51" NOx="1.27" PMx="0.05" fuel="1.31" electricity="0.00" noise="61.12" route="route12" type="Car" waiting="0.00" lane="Road1_0" pos="23.99" speed="5.01" angle="180.00" x="498.40" y="976.01"/>
        <vehicle id="car6" eclass="HBEFA3/PC_G_EU4" CO2="2925.30" CO="132.15" HC="0.67" NOx="1.28" PMx="0.06" fuel="1.26" electricity="0.00" noise="60.92" route="route12" type="Car" waiting="0.00" lane="Road1_0" pos="7.70" speed="2.32" angle="180.00" x="498.40" y="992.30"/>
        <vehicle id="car7" eclass="HBEFA3/PC_G_EU4" CO2="2938.20" CO="129.99" HC="0.66" NOx="1.28" PMx="0.06" fuel="1.26" electricity="0.00" noise="60.92" route="route43" type="Car" waiting="0.00" lane="Road4_0" pos="8.06" speed="2.48" angle="90.00" x="8.06" y="498.40"/>
    </timestep>
    <timestep time="16.00">
        <vehicle id="car0" eclass="HBEFA3/PC_G_EU4" CO2="5010.05" CO="69.02" HC="0.43" NOx="2.03" PMx="0.09" fuel="2.15" electricity="0.00" noise="65.74" route="route34" type="Car" waiting="0.00" lane="Road3_0" pos="83.22" speed="11.12" angle="270.00" x="916.78" y="501.60"/>
        <vehicle id="car1" eclass="HBEFA3/PC_G_EU4" CO2="3770.74" CO="64.50" HC="0.38" NOx="1.51" PMx="0.06" fuel="1.62" electricity="0.00" noise="63.47" route="route21" type="Car" waiting="0.00" lane="Road2_0" pos="61.86" speed="8.87" angle="0.00" x="501.60" y="61.86"/>
        <vehicle id="car10" eclass="HBEFA3/PC_G_EU4" CO2="2750.15" CO="150.67" HC="0.75" NOx="1.24" PMx="0.06" fuel="1.18" electricity="0.00" noise="60.56" route="route21" type="Car" waiting="0.00" lane="Road2_0" pos="4.07" speed="0.97" angle="0.00" x="501.60" y="4.07"/>
        <vehicle id="car2" eclass="HBEFA3/PC_G_EU4" CO2="2964.20" CO="81.10" HC="0.44" NOx="1.20" PMx="0.05" fuel="1.27" electricity="0.00" noise="61.05" route="route21" type="Car" waiting="0.00" lane="Road2_0" pos="30.48" speed="5.97" angle="0.00" x="501.60" y="30.48"/>
        <vehicle id="car3" eclass="HBEFA3/PC_G_EU4" CO2="4057.34" CO="76.40" HC="0.44" NOx="1.66" PMx="0.07" fuel="1.74" electricity="0.00" noise="63.84" route="route43" type="Car" waiting="0.00" lane="Road4_0" pos="52.70" speed="8.30" angle="90.00" x="52.70" y="498.40"/>
        <vehicle id="car4" eclass="HBEFA3/PC_G_EU4" CO2="3867.09" CO="76.52" HC="0.44" NOx="1.58" PMx="0.06" fuel="1.66" electricity="0.00" noise="63.44" route="route34" type="Car" waiting="0.00" lane="Road3_0" pos="46.35" speed="7.92" angle="270.00" x="953.65" y="501.60"/>
        <vehicle id="car5" eclass="HBEFA3/PC_G_EU4" CO2="3420.85" CO="92.00" HC="0.50" NOx="1.42" PMx="0.06" fuel="1.47" electricity="0.00" noise="62.24" route="route12" type="Car" waiting="0.00" lane="Road1_0" pos="29.85" speed="5.86" angle="180.00" x="498.40" y="970.15"/>
        <vehicle id="car6" eclass="HBEFA3/PC_G_EU4" CO2="2976.35" CO="120.43" HC="0.62" NOx="1.28" PMx="0.06" fuel="1.28" electricity="0.00" noise="60.88" route="route12" type="Car" waiting="0.00" lane="Road1_0" pos="10.86" speed="3.15" angle="180.00" x="498.40" y="989.14"/>
        <vehicle id="car7" eclass="HBEFA3/PC_G_EU4" CO2="2699.29" CO="117.31" HC="0.60" NOx="1.16" PMx="0.05" fuel="1.16" electricity="0.00" noise="59.38" route="route43" type="Car" waiting="0.00" lane="Road4_0" pos="11.05" speed="2.98" angle="90.00" x="11.05" y="498.40"/>
        <vehicle id="car8" eclass="HBEFA3/PC_G_EU4" CO2="2624.72" CO="164.78" HC="0.81" NOx="1.20" PMx="0.07" fuel="1.13" electricity="0.00" noise="55.94" route="route43" type="Car" waiting="0.00" lane="Road4_0" pos="3.10" speed="0.00" angle="90.00" x="3.10" y="498.40"/>
        <vehicle id="car9" eclass="HBEFA3/PC_G_EU4" CO2="2624.72" CO="164.78" HC="0.81" NOx="1.20" PMx="0.07" fuel="1.13" electricity="0.00" noise="55.94" route="route12" type="Car" waiting="0.00" lane="Road1_0" pos="3.10" speed="0.00" angle="180.00" x="498.40" y="996.90"/>
    </timestep>
    <timestep time="17.00">
        <vehicle id="car0" eclass="HBEFA3/PC_G_EU4" CO2="5214.54" CO="65.59" HC="0.42" NOx="2.11" PMx="0.09" fuel="2.24" electricity="0.00" noise="66.20" route="route34" type="Car" waiting="0.00" lane="Road3_0" pos="95.29" speed="12.07" angle="270.00" x="904.71" y="501.60"/>
        <vehicle id="car1" eclass="HBEFA3/PC_G_EU4" CO2="4387.41" CO="68.33" HC="0.41" NOx="1.77" PMx="0.07" fuel="1.89" electricity="0.00" noise="64.63" route="route21" type="Car" waiting="0.00" lane="Road2_0" pos="71.63" speed="9.76" angle="0.00" x="501.60" y="71.63"/>
        <vehicle id="car10" eclass="HBEFA3/PC_G_EU4" CO2="2896.88" CO="137.61" HC="0.69" NOx="1.28" PMx="0.06" fuel="1.25" electricity="0.00" noise="60.99" route="route21" type="Car" waiting="0.00" lane="Road2_0" pos="6.01" speed="1.94" angle="0.00" x="501.60" y="6.01"/>
        <vehicle id="car2" eclass="HBEFA3/PC_G_EU4" CO2="3735.51" CO="85.79" HC="0.48" NOx="1.54" PMx="0.06" fuel="1.61" electricity="0.00" noise="63.06" route="route21" type="Car" waiting="0.00" lane="Road2_0" pos="37.36" speed="6.88" angle="0.00" x="501.60" y="37.36"/>
        <vehicle id="car3" eclass="HBEFA3/PC_G_EU4" CO2="4412.28" CO="73.78" HC="0.44" NOx="1.80" PMx="0.07" fuel="1.90" electricity="0.00" noise="64.58" route="route43" type="Car" waiting="0.00" lane="Road4_0" pos="61.95" speed="9.26" angle="90.00" x="61.95" y="498.40"/>
        <vehicle id="car4" eclass="HBEFA3/PC_G_EU4" CO2="3703.32" CO="65.45" HC="0.38" NOx="1.48" PMx="0.06" fuel="1.59" electricity="0.00" noise="63.30" route="route34" type="Car" waiting="0.00" lane="Road3_0" pos="54.99" speed="8.64" angle="270.00" x="945.01" y="501.60"/>
        <vehicle id="car5" eclass="HBEFA3/PC_G_EU4" CO2="3602.97" CO="85.12" HC="0.47" NOx="1.48" PMx="0.06" fuel="1.55" electricity="0.00" noise="62.75" route="route12" type="Car" waiting="0.00" lane="Road1_0" pos="36.56" speed="6.71" angle="180.00" x="498.40" y="963.44"/>
        <vehicle id="car6" eclass="HBEFA3/PC_G_EU4" CO2="3171.22" CO="111.33" HC="0.58" NOx="1.35" PMx="0.06" fuel="1.36" electricity="0.00" noise="61.56" route="route12" type="Car" waiting="0.00" lane="Road1_0" pos="14.90" speed="4.05" angle="180.00" x="498.40" y="985.10"/>
        <vehicle id="car7" eclass="HBEFA3/PC_G_EU4" CO2="2861.06" CO="111.11" HC="0.57" NOx="1.22" PMx="0.05" fuel="1.23" electricity="0.00" noise="60.27" route="route43" type="Car" waiting="0.00" lane="Road4_0" pos="14.67" speed="3.62" angle="90.00" x="14.67" y="498.40"/>
        <vehicle id="car8" eclass="HBEFA3/PC_G_EU4" CO2="2700.15" CO="152.05" HC="0.76" NOx="1.22" PMx="0.06" fuel="1.16" electricity="0.00" noise="59.88" route="route43" type="Car" waiting="0.00" lane="Road4_0" pos="3.92" speed="0.82" angle="90.00" x="3.92" y="498.40"/>
        <vehicle id="car9" eclass="HBEFA3/PC_G_EU4" CO2="2656.20" CO="153.93" HC="0.76" NOx="1.20" PMx="0.06" fuel="1.14" electricity="0.00" noise="59.10" route="route12" type="Car" waiting="0.00" lane="Road1_0" pos="3.76" speed="0.66" angle="180.00" x="498.40" y="996.24"/>
    </timestep>
    <timestep time="18.00">
        <vehicle id="car0" eclass="HBEFA3/PC_G_EU4" CO2="4897.94" CO="53.35" HC="0.36" NOx="1.94" PMx="0.08" fuel="2.11" electricity="0.00" noise="66.10" route="route34" type="Car" waiting="0.00" lane="Road3_0" pos="108.15" speed="12.86" angle="270.00" x="891.85" y="501.60"/>
        <vehicle id="car1" eclass="HBEFA3/PC_G_EU4" CO2="4348.09" CO="60.13" HC="0.37" NOx="1.74" PMx="0.07" fuel="1.87" electricity="0.00" noise="64.77" route="route21" type="Car" waiting="0.00" lane="Road2_0" pos="82.19" speed="10.57" angle="0.00" x="501.60" y="82.19"/>
        <vehicle id="car10" eclass="HBEFA3/PC_G_EU4" CO2="2734.00" CO="124.98" HC="0.63" NOx="1.19" PMx="0.06" fuel="1.18" electricity="0.00" noise="59.54" route="route21" type="Car" waiting="0.00" lane="Road2_0" pos="8.54" speed="2.53" angle="0.00" x="501.60" y="8.54"/>
        <vehicle id="car2" eclass="HBEFA3/PC_G_EU4" CO2="3569.90" CO="73.74" HC="0.42" NOx="1.44" PMx="0.06" fuel="1.53" electricity="0.00" noise="62.81" route="route21" type="Car" waiting="0.00" lane="Road2_0" pos="44.99" speed="7.63" angle="0.00" x="501.60" y="44.99"/>
        <vehicle id="car3" eclass="HBEFA3/PC_G_EU4" CO2="3948.51" CO="57.41" HC="0.35" NOx="1.56" PMx="0.06" fuel="1.70" electricity="0.00" noise="64.06" route="route43" type="Car" waiting="0.00" lane="Road4_0" pos="71.91" speed="9.96" angle="90.00" x="71.91" y="498.40"/>
        <vehicle id="car4" eclass="HBEFA3/PC_G_EU4" CO2="3782.14" CO="60.03" HC="0.36" NOx="1.50" PMx="0.06" fuel="1.63" electricity="0.00" noise="63.63" route="route34" type="Car" waiting="0.00" lane="Road3_0" pos="64.32" speed="9.33" angle="270.00" x="935.68" y="501.60"/>
        <vehicle id="car5" eclass="HBEFA3/PC_G_EU4" CO2="3060.14" CO="67.88" HC="0.38" NOx="1.21" PMx="0.05" fuel="1.32" electricity="0.00" noise="61.68" route="route12" type="Car" waiting="0.00" lane="Road1_0" pos="43.78" speed="7.22" angle="180.00" x="498.40" y="956.22"/>
        <vehicle id="car6" eclass="HBEFA3/PC_G_EU4" CO2="3467.41" CO="103.71" HC="0.55" NOx="1.46" PMx="0.06" fuel="1.49" electricity="0.00" noise="62.44" route="route12" type="Car" waiting="0.00" lane="Road1_0" pos="19.94" speed="5.04" angle="180.00" x="498.40" y="980.06"/>