<?xml version="1.0" encoding="UTF-8"?>

<!-- generated on Tue 02 Jul 2019 11:29:14 AM CEST by Eclipse SUMO GUI Version 1.2.0
<configuration xmlns:xsi="http://www.w3.org/2001/XMLSchema-instance" xsi:noNamespaceSchemaLocation="http://sumo.dlr.de/xsd/sumoConfiguration.xsd">

    <input>
        <net-file value="NetFile.net.xml"/>
        <route-files value="TrafficLoads/HighTrafficLoad.rou.xml"/>
    </input>

    <output>
        <emission-output value="results/emission7.xml"/>
        <tripinfo-output value="results/tripinfo7.xml"/>
    </output>

    <time>
        <begin value="0"/>
    </time>

    <report>
        <verbose value="true"/>
        <no-step-log value="true"/>
    </report>

    <traci_server>
        <remote-port value="8873"/>
    </traci_server>

    <gui_only>
        <gui-settings-file value="nylandsvejPlainTest.set.xml"/>
    </gui_only>

</configuration>
-->

<emission-export xmlns:xsi="http://www.w3.org/2001/XMLSchema-instance" xsi:noNamespaceSchemaLocation="http://sumo.dlr.de/xsd/emission_file.xsd">
    <timestep time="0.00"/>
    <timestep time="1.00"/>
    <timestep time="2.00">
        <vehicle id="car0" eclass="HBEFA3/PC_G_EU4" CO2="2624.72" CO="164.78" HC="0.81" NOx="1.20" PMx="0.07" fuel="1.13" electricity="0.00" noise="55.94" route="route34" type="Car" waiting="0.00" lane="Road3_0" pos="3.10" speed="0.00" angle="270.00" x="996.90" y="501.60"/>
    </timestep>
    <timestep time="3.00">
        <vehicle id="car0" eclass="HBEFA3/PC_G_EU4" CO2="2709.14" CO="151.76" HC="0.75" NOx="1.22" PMx="0.06" fuel="1.16" electricity="0.00" noise="60.01" route="route34" type="Car" waiting="0.00" lane="Road3_0" pos="3.95" speed="0.85" angle="270.00" x="996.05" y="501.60"/>
    </timestep>
    <timestep time="4.00">
        <vehicle id="car0" eclass="HBEFA3/PC_G_EU4" CO2="2873.26" CO="139.12" HC="0.70" NOx="1.27" PMx="0.06" fuel="1.24" electricity="0.00" noise="60.90" route="route34" type="Car" waiting="0.00" lane="Road3_0" pos="5.77" speed="1.82" angle="270.00" x="994.23" y="501.60"/>
        <vehicle id="car1" eclass="HBEFA3/PC_G_EU4" CO2="2624.72" CO="164.78" HC="0.81" NOx="1.20" PMx="0.07" fuel="1.13" electricity="0.00" noise="55.94" route="route21" type="Car" waiting="0.00" lane="Road2_0" pos="3.10" speed="0.00" angle="0.00" x="501.60" y="3.10"/>
    </timestep>
    <timestep time="5.00">
        <vehicle id="car0" eclass="HBEFA3/PC_G_EU4" CO2="2967.74" CO="126.87" HC="0.65" NOx="1.29" PMx="0.06" fuel="1.28" electricity="0.00" noise="60.99" route="route34" type="Car" waiting="0.00" lane="Road3_0" pos="8.49" speed="2.72" angle="270.00" x="991.51" y="501.60"/>
        <vehicle id="car1" eclass="HBEFA3/PC_G_EU4" CO2="2735.78" CO="151.01" HC="0.75" NOx="1.23" PMx="0.06" fuel="1.18" electricity="0.00" noise="60.38" route="route21" type="Car" waiting="0.00" lane="Road2_0" pos="4.03" speed="0.93" angle="0.00" x="501.60" y="4.03"/>
        <vehicle id="car3" eclass="HBEFA3/PC_G_EU4" CO2="2624.72" CO="164.78" HC="0.81" NOx="1.20" PMx="0.07" fuel="1.13" electricity="0.00" noise="55.94" route="route43" type="Car" waiting="0.00" lane="Road4_0" pos="3.10" speed="0.00" angle="90.00" x="3.10" y="498.40"/>
    </timestep>
    <timestep time="6.00">
        <vehicle id="car0" eclass="HBEFA3/PC_G_EU4" CO2="3084.38" CO="116.05" HC="0.60" NOx="1.32" PMx="0.06" fuel="1.33" electricity="0.00" noise="61.29" route="route34" type="Car" waiting="0.00" lane="Road3_0" pos="12.09" speed="3.60" angle="270.00" x="987.91" y="501.60"/>
        <vehicle id="car1" eclass="HBEFA3/PC_G_EU4" CO2="2666.35" CO="140.25" HC="0.70" NOx="1.18" PMx="0.06" fuel="1.15" electricity="0.00" noise="58.98" route="route21" type="Car" waiting="0.00" lane="Road2_0" pos="5.52" speed="1.49" angle="0.00" x="501.60" y="5.52"/>
        <vehicle id="car3" eclass="HBEFA3/PC_G_EU4" CO2="2732.23" CO="151.10" HC="0.75" NOx="1.23" PMx="0.06" fuel="1.17" electricity="0.00" noise="60.33" route="route43" type="Car" waiting="0.00" lane="Road4_0" pos="4.02" speed="0.92" angle="90.00" x="4.02" y="498.40"/>
        <vehicle id="car4" eclass="HBEFA3/PC_G_EU4" CO2="2624.72" CO="164.78" HC="0.81" NOx="1.20" PMx="0.07" fuel="1.13" electricity="0.00" noise="55.94" route="route34" type="Car" waiting="0.00" lane="Road3_0" pos="3.10" speed="0.00" angle="270.00" x="996.90" y="501.60"/>
    </timestep>
    <timestep time="7.00">
        <vehicle id="car0" eclass="HBEFA3/PC_G_EU4" CO2="3251.09" CO="106.66" HC="0.56" NOx="1.38" PMx="0.06" fuel="1.40" electricity="0.00" noise="61.79" route="route34" type="Car" waiting="0.00" lane="Road3_0" pos="16.58" speed="4.50" angle="270.00" x="983.42" y="501.60"/>
        <vehicle id="car1" eclass="HBEFA3/PC_G_EU4" CO2="2946.87" CO="131.03" HC="0.66" NOx="1.29" PMx="0.06" fuel="1.27" electricity="0.00" noise="61.01" route="route21" type="Car" waiting="0.00" lane="Road2_0" pos="7.94" speed="2.42" angle="0.00" x="501.60" y="7.94"/>
        <vehicle id="car3" eclass="HBEFA3/PC_G_EU4" CO2="2647.65" CO="140.75" HC="0.70" NOx="1.18" PMx="0.06" fuel="1.14" electricity="0.00" noise="58.77" route="route43" type="Car" waiting="0.00" lane="Road4_0" pos="5.45" speed="1.43" angle="90.00" x="5.45" y="498.40"/>
        <vehicle id="car4" eclass="HBEFA3/PC_G_EU4" CO2="2664.98" CO="153.47" HC="0.76" NOx="1.20" PMx="0.06" fuel="1.15" electricity="0.00" noise="59.27" route="route34" type="Car" waiting="0.00" lane="Road3_0" pos="3.80" speed="0.70" angle="270.00" x="996.20" y="501.60"/>
    </timestep>
    <timestep time="8.00">
        <vehicle id="car0" eclass="HBEFA3/PC_G_EU4" CO2="2855.16" CO="91.34" HC="0.48" NOx="1.18" PMx="0.05" fuel="1.23" electricity="0.00" noise="60.48" route="route34" type="Car" waiting="0.00" lane="Road3_0" pos="21.60" speed="5.02" angle="270.00" x="978.40" y="501.60"/>
        <vehicle id="car1" eclass="HBEFA3/PC_G_EU4" CO2="2976.92" CO="119.14" HC="0.61" NOx="1.28" PMx="0.06" fuel="1.28" electricity="0.00" noise="60.86" route="route21" type="Car" waiting="0.00" lane="Road2_0" pos="11.18" speed="3.24" angle="0.00" x="501.60" y="11.18"/>
        <vehicle id="car2" eclass="HBEFA3/PC_G_EU4" CO2="2624.72" CO="164.78" HC="0.81" NOx="1.20" PMx="0.07" fuel="1.13" electricity="0.00" noise="55.94" route="route21" type="Car" waiting="0.00" lane="Road2_0" pos="3.10" speed="0.00" angle="0.00" x="501.60" y="3.10"/>
        <vehicle id="car3" eclass="HBEFA3/PC_G_EU4" CO2="2764.93" CO="132.04" HC="0.67" NOx="1.21" PMx="0.06" fuel="1.19" electricity="0.00" noise="59.80" route="route43" type="Car" waiting="0.00" lane="Road4_0" pos="7.58" speed="2.12" angle="90.00" x="7.58" y="498.40"/>
        <vehicle id="car4" eclass="HBEFA3/PC_G_EU4" CO2="2700.97" CO="142.94" HC="0.71" NOx="1.20" PMx="0.06" fuel="1.16" electricity="0.00" noise="59.42" route="route34" type="Car" waiting="0.00" lane="Road3_0" pos="5.17" speed="1.37" angle="270.00" x="994.83" y="501.60"/>
        <vehicle id="car5" eclass="HBEFA3/PC_G_EU4" CO2="2624.72" CO="164.78" HC="0.81" NOx="1.20" PMx="0.07" fuel="1.13" electricity="0.00" noise="55.94" route="route12" type="Car" waiting="0.00" lane="Road1_0" pos="3.10" speed="0.00" angle="180.00" x="498.40" y="996.90"/>
    </timestep>
    <timestep time="9.00">
        <vehicle id="car0" eclass="HBEFA3/PC_G_EU4" CO2="2910.82" CO="85.48" HC="0.46" NOx="1.19" PMx="0.05" fuel="1.25" electricity="0.00" noise="60.79" route="route34" type="Car" waiting="0.00" lane="Road3_0" pos="27.15" speed="5.55" angle="270.00" x="972.85" y="501.60"/>
        <vehicle id="car1" eclass="HBEFA3/PC_G_EU4" CO2="2941.71" CO="108.30" HC="0.56" NOx="1.25" PMx="0.05" fuel="1.26" electricity="0.00" noise="60.63" route="route21" type="Car" waiting="0.00" lane="Road2_0" pos="15.11" speed="3.93" angle="0.00" x="501.60" y="15.11"/>
        <vehicle id="car2" eclass="HBEFA3/PC_G_EU4" CO2="2756.76" CO="150.52" HC="0.75" NOx="1.24" PMx="0.06" fuel="1.19" electricity="0.00" noise="60.64" route="route21" type="Car" waiting="0.00" lane="Road2_0" pos="4.08" speed="0.98" angle="0.00" x="501.60" y="4.08"/>
        <vehicle id="car3" eclass="HBEFA3/PC_G_EU4" CO2="2926.89" CO="122.83" HC="0.63" NOx="1.27" PMx="0.06" fuel="1.26" electricity="0.00" noise="60.67" route="route43" type="Car" waiting="0.00" lane="Road4_0" pos="10.50" speed="2.93" angle="90.00" x="10.50" y="498.40"/>
        <vehicle id="car4" eclass="HBEFA3/PC_G_EU4" CO2="2847.05" CO="132.65" HC="0.67" NOx="1.25" PMx="0.06" fuel="1.22" electricity="0.00" noise="60.42" route="route34" type="Car" waiting="0.00" lane="Road3_0" pos="7.36" speed="2.19" angle="270.00" x="992.64" y="501.60"/>
        <vehicle id="car5" eclass="HBEFA3/PC_G_EU4" CO2="2651.78" CO="154.18" HC="0.76" NOx="1.20" PMx="0.06" fuel="1.14" electricity="0.00" noise="59.00" route="route12" type="Car" waiting="0.00" lane="Road1_0" pos="3.74" speed="0.64" angle="180.00" x="498.40" y="996.26"/>
    </timestep>
    <timestep time="10.00">
        <vehicle id="car0" eclass="HBEFA3/PC_G_EU4" CO2="3557.20" CO="87.85" HC="0.48" NOx="1.47" PMx="0.06" fuel="1.53" electricity="0.00" noise="62.62" route="route34" type="Car" waiting="0.00" lane="Road3_0" pos="33.56" speed="6.41" angle="270.00" x="966.44" y="501.60"/>
        <vehicle id="car1" eclass="HBEFA3/PC_G_EU4" CO2="3083.04" CO="100.86" HC="0.53" NOx="1.29" PMx="0.06" fuel="1.33" electricity="0.00" noise="61.18" route="route21" type="Car" waiting="0.00" lane="Road2_0" pos="19.77" speed="4.66" angle="0.00" x="501.60" y="19.77"/>
        <vehicle id="car2" eclass="HBEFA3/PC_G_EU4" CO2="2692.05" CO="139.03" HC="0.70" NOx="1.19" PMx="0.06" fuel="1.16" electricity="0.00" noise="59.25" route="route21" type="Car" waiting="0.00" lane="Road2_0" pos="5.68" speed="1.59" angle="0.00" x="501.60" y="5.68"/>
        <vehicle id="car3" eclass="HBEFA3/PC_G_EU4" CO2="2798.63" CO="111.47" HC="0.57" NOx="1.19" PMx="0.05" fuel="1.20" electricity="0.00" noise="59.97" route="route43" type="Car" waiting="0.00" lane="Road4_0" pos="14.01" speed="3.51" angle="90.00" x="14.01" y="498.40"/>
        <vehicle id="car4" eclass="HBEFA3/PC_G_EU4" CO2="2952.09" CO="122.05" HC="0.62" NOx="1.28" PMx="0.06" fuel="1.27" electricity="0.00" noise="60.78" route="route34" type="Car" waiting="0.00" lane="Road3_0" pos="10.37" speed="3.01" angle="270.00" x="989.63" y="501.60"/>
        <vehicle id="car5" eclass="HBEFA3/PC_G_EU4" CO2="2809.87" CO="142.20" HC="0.71" NOx="1.25" PMx="0.06" fuel="1.21" electricity="0.00" noise="60.54" route="route12" type="Car" waiting="0.00" lane="Road1_0" pos="5.29" speed="1.55" angle="180.00" x="498.40" y="994.71"/>
    </timestep>
    <timestep time="11.00">
        <vehicle id="car0" eclass="HBEFA3/PC_G_EU4" CO2="3587.87" CO="78.96" HC="0.44" NOx="1.46" PMx="0.06" fuel="1.54" electricity="0.00" noise="62.77" route="route34" type="Car" waiting="0.00" lane="Road3_0" pos="40.76" speed="7.20" angle="270.00" x="959.24" y="501.60"/>
        <vehicle id="car1" eclass="HBEFA3/PC_G_EU4" CO2="3517.99" CO="97.23" HC="0.52" NOx="1.47" PMx="0.06" fuel="1.51" electricity="0.00" noise="62.52" route="route21" type="Car" waiting="0.00" lane="Road2_0" pos="25.38" speed="5.60" angle="0.00" x="501.60" y="25.38"/>
        <vehicle id="car2" eclass="HBEFA3/PC_G_EU4" CO2="2914.65" CO="129.65" HC="0.66" NOx="1.27" PMx="0.06" fuel="1.25" electricity="0.00" noise="60.76" route="route21" type="Car" waiting="0.00" lane="Road2_0" pos="8.15" speed="2.47" angle="0.00" x="501.60" y="8.15"/>
        <vehicle id="car3" eclass="HBEFA3/PC_G_EU4" CO2="3351.21" CO="108.76" HC="0.57" NOx="1.42" PMx="0.06" fuel="1.44" electricity="0.00" noise="62.15" route="route43" type="Car" waiting="0.00" lane="Road4_0" pos="18.51" speed="4.49" angle="90.00" x="18.51" y="498.40"/>
        <vehicle id="car4" eclass="HBEFA3/PC_G_EU4" CO2="2896.98" CO="110.94" HC="0.57" NOx="1.23" PMx="0.05" fuel="1.25" electricity="0.00" noise="60.43" route="route34" type="Car" waiting="0.00" lane="Road3_0" pos="14.05" speed="3.68" angle="270.00" x="985.95" y="501.60"/>
        <vehicle id="car5" eclass="HBEFA3/PC_G_EU4" CO2="3002.72" CO="130.33" HC="0.66" NOx="1.31" PMx="0.06" fuel="1.29" electricity="0.00" noise="61.31" route="route12" type="Car" waiting="0.00" lane="Road1_0" pos="7.83" speed="2.54" angle="180.00" x="498.40" y="992.17"/>
    </timestep>
    <timestep time="12.00">
        <vehicle id="car0" eclass="HBEFA3/PC_G_EU4" CO2="3498.46" CO="69.33" HC="0.40" NOx="1.40" PMx="0.05" fuel="1.50" electricity="0.00" noise="62.74" route="route34" type="Car" waiting="0.00" lane="Road3_0" pos="48.65" speed="7.89" angle="270.00" x="951.35" y="501.60"/>
        <vehicle id="car1" eclass="HBEFA3/PC_G_EU4" CO2="3653.44" CO="88.57" HC="0.49" NOx="1.51" PMx="0.06" fuel="1.57" electricity="0.00" noise="62.85" route="route21" type="Car" waiting="0.00" lane="Road2_0" pos="31.89" speed="6.51" angle="0.00" x="501.60" y="31.89"/>
        <vehicle id="car2" eclass="HBEFA3/PC_G_EU4" CO2="2931.02" CO="118.31" HC="0.61" NOx="1.26" PMx="0.06" fuel="1.26" electricity="0.00" noise="60.62" route="route21" type="Car" waiting="0.00" lane="Road2_0" pos="11.38" speed="3.23" angle="0.00" x="501.60" y="11.38"/>
        <vehicle id="car3" eclass="HBEFA3/PC_G_EU4" CO2="2827.83" CO="91.08" HC="0.48" NOx="1.16" PMx="0.05" fuel="1.22" electricity="0.00" noise="60.38" route="route43" type="Car" waiting="0.00" lane="Road4_0" pos="23.50" speed="5.00" angle="90.00" x="23.50" y="498.40"/>
        <vehicle id="car4" eclass="HBEFA3/PC_G_EU4" CO2="2914.52" CO="102.33" HC="0.53" NOx="1.22" PMx="0.05" fuel="1.25" electricity="0.00" noise="60.54" route="route34" type="Car" waiting="0.00" lane="Road3_0" pos="18.36" speed="4.31" angle="270.00" x="981.64" y="501.60"/>
        <vehicle id="car5" eclass="HBEFA3/PC_G_EU4" CO2="3115.78" CO="118.49" HC="0.61" NOx="1.34" PMx="0.06" fuel="1.34" electricity="0.00" noise="61.47" route="route12" type="Car" waiting="0.00" lane="Road1_0" pos="11.31" speed="3.48" angle="180.00" x="498.40" y="988.69"/>
        <vehicle id="car6" eclass="HBEFA3/PC_G_EU4" CO2="2624.72" CO="164.78" HC="0.81" NOx="1.20" PMx="0.07" fuel="1.13" electricity="0.00" noise="55.94" route="route12" type="Car" waiting="0.00" lane="Road1_0" pos="3.10" speed="0.00" angle="180.00" x="498.40" y="996.90"/>
        <vehicle id="car7" eclass="HBEFA3/PC_G_EU4" CO2="2624.72" CO="164.78" HC="0.81" NOx="1.20" PMx="0.07" fuel="1.13" electricity="0.00" noise="55.94" route="route43" type="Car" waiting="0.00" lane="Road4_0" pos="3.10" speed="0.00" angle="90.00" x="3.10" y="498.40"/>
    </timestep>
    <timestep time="13.00">
        <vehicle id="car0" eclass="HBEFA3/PC_G_EU4" CO2="4370.09" CO="76.76" HC="0.45" NOx="1.79" PMx="0.07" fuel="1.88" electricity="0.00" noise="64.46" route="route34" type="Car" waiting="0.00" lane="Road3_0" pos="57.52" speed="8.87" angle="270.00" x="942.48" y="501.60"/>
        <vehicle id="car1" eclass="HBEFA3/PC_G_EU4" CO2="3129.25" CO="71.08" HC="0.39" NOx="1.25" PMx="0.05" fuel="1.35" electricity="0.00" noise="61.77" route="route21" type="Car" waiting="0.00" lane="Road2_0" pos="38.96" speed="7.07" angle="0.00" x="501.60" y="38.96"/>
        <vehicle id="car2" eclass="HBEFA3/PC_G_EU4" CO2="3254.72" CO="111.13" HC="0.58" NOx="1.39" PMx="0.06" fuel="1.40" electricity="0.00" noise="61.86" route="route21" type="Car" waiting="0.00" lane="Road2_0" pos="15.56" speed="4.18" angle="0.00" x="501.60" y="15.56"/>
        <vehicle id="car3" eclass="HBEFA3/PC_G_EU4" CO2="3596.88" CO="94.51" HC="0.51" NOx="1.50" PMx="0.06" fuel="1.55" electricity="0.00" noise="62.72" route="route43" type="Car" waiting="0.00" lane="Road4_0" pos="29.44" speed="5.94" angle="90.00" x="29.44" y="498.40"/>
        <vehicle id="car4" eclass="HBEFA3/PC_G_EU4" CO2="3286.36" CO="98.51" HC="0.52" NOx="1.38" PMx="0.06" fuel="1.41" electricity="0.00" noise="61.85" route="route34" type="Car" waiting="0.00" lane="Road3_0" pos="23.51" speed="5.15" angle="270.00" x="976.49" y="501.60"/>
        <vehicle id="car5" eclass="HBEFA3/PC_G_EU4" CO2="3295.43" CO="108.58" HC="0.57" NOx="1.40" PMx="0.06" fuel="1.42" electricity="0.00" noise="61.96" route="route12" type="Car" waiting="0.00" lane="Road1_0" pos="15.73" speed="4.42" angle="180.00" x="498.40" y="984.27"/>
        <vehicle id="car6" eclass="HBEFA3/PC_G_EU4" CO2="2632.41" CO="155.57" HC="0.77" NOx="1.19" PMx="0.06" fuel="1.13" electricity="0.00" noise="58.50" route="route12" type="Car" waiting="0.00" lane="Road1_0" pos="3.64" speed="0.54" angle="180.00" x="498.40" y="996.36"/>
        <vehicle id="car7" eclass="HBEFA3/PC_G_EU4" CO2="2672.38" CO="153.13" HC="0.76" NOx="1.21" PMx="0.06" fuel="1.15" electricity="0.00" noise="59.41" route="route43" type="Car" waiting="0.00" lane="Road4_0" pos="3.83" speed="0.73" angle="90.00" x="3.83" y="498.40"/>
    </timestep>
    <timestep time="14.00">
        <vehicle id="car0" eclass="HBEFA3/PC_G_EU4" CO2="3468.84" CO="52.62" HC="0.32" NOx="1.35" PMx="0.05" fuel="1.49" electricity="0.00" noise="63.20" route="route34" type="Car" waiting="0.00" lane="Road3_0" pos="66.96" speed="9.43" angle="270.00" x="933.04" y="501.60"/>
        <vehicle id="car1" eclass="HBEFA3/PC_G_EU4" CO2="4144.85" CO="80.86" HC="0.46" NOx="1.70" PMx="0.07" fuel="1.78" electricity="0.00" noise="63.98" route="route21" type="Car" waiting="0.00" lane="Road2_0" pos="47.01" speed="8.05" angle="0.00" x="501.60" y="47.01"/>
        <vehicle id="car2" eclass="HBEFA3/PC_G_EU4" CO2="2957.62" CO="96.39" HC="0.51" NOx="1.23" PMx="0.05" fuel="1.27" electricity="0.00" noise="60.77" route="route21" type="Car" waiting="0.00" lane="Road2_0" pos="20.36" speed="4.80" angle="0.00" x="501.60" y="20.36"/>
        <vehicle id="car3" eclass="HBEFA3/PC_G_EU4" CO2="3248.31" CO="79.11" HC="0.43" NOx="1.32" PMx="0.05" fuel="1.40" electricity="0.00" noise="61.91" route="route43" type="Car" waiting="0.00" lane="Road4_0" pos="36.05" speed="6.60" angle="90.00" x="36.05" y="498.40"/>
        <vehicle id="car4" eclass="HBEFA3/PC_G_EU4" CO2="3702.57" CO="94.28" HC="0.51" NOx="1.55" PMx="0.07" fuel="1.59" electricity="0.00" noise="62.98" route="route34" type="Car" waiting="0.00" lane="Road3_0" pos="29.64" speed="6.13" angle="270.00" x="970.36" y="501.60"/>
        <vehicle id="car5" eclass="HBEFA3/PC_G_EU4" CO2="3407.64" CO="98.63" HC="0.53" NOx="1.43" PMx="0.06" fuel="1.46" electricity="0.00" noise="62.21" route="route12" type="Car" waiting="0.00" lane="Road1_0" pos="21.06" speed="5.32" angle="180.00" x="498.40" y="978.94"/>
        <vehicle id="car6" eclass="HBEFA3/PC_G_EU4" CO2="2827.82" CO="143.28" HC="0.72" NOx="1.26" PMx="0.06" fuel="1.22" electricity="0.00" noise="60.79" route="route12" type="Car" waiting="0.00" lane="Road1_0" pos="5.14" speed="1.51" angle="180.00" x="498.40" y="994.86"/>
        <vehicle id="car7" eclass="HBEFA3/PC_G_EU4" CO2="2782.20" CO="141.39" HC="0.71" NOx="1.24" PMx="0.06" fuel="1.20" electricity="0.00" noise="60.23" route="route43" type="Car" waiting="0.00" lane="Road4_0" pos="5.39" speed="1.56" angle="90.00" x="5.39" y="498.40"/>
    </timestep>
    <timestep time="15.00">
        <vehicle id="car0" eclass="HBEFA3/PC_G_EU4" CO2="4082.36" CO="58.22" HC="0.36" NOx="1.62" PMx="0.06" fuel="1.75" electricity="0.00" noise="64.31" route="route34" type="Car" waiting="0.00" lane="Road3_0" pos="77.13" speed="10.17" angle="270.00" x="922.87" y="501.60"/>
        <vehicle id="car1" eclass="HBEFA3/PC_G_EU4" CO2="3914.25" CO="67.71" HC="0.40" NOx="1.58" PMx="0.06" fuel="1.68" electricity="0.00" noise="63.70" route="route21" type="Car" waiting="0.00" lane="Road2_0" pos="55.85" speed="8.84" angle="0.00" x="501.60" y="55.85"/>
        <vehicle id="car10" eclass="HBEFA3/PC_G_EU4" CO2="2624.72" CO="164.78" HC="0.81" NOx="1.20" PMx="0.07" fuel="1.13" electricity="0.00" noise="55.94" route="route21" type="Car" waiting="0.00" lane="Road2_0" pos="3.10" speed="0.00" angle="0.00" x="501.60" y="3.10"/>
        <vehicle id="car2" eclass="HBEFA3/PC_G_EU4" CO2="2960.85" CO="88.73" HC="0.47" NOx="1.22" PMx="0.05" fuel="1.27" electricity="0.00" noise="60.89" route="route21" type="Car" waiting="0.00" lane="Road2_0" pos="25.74" speed="5.38" angle="0.00" x="501.60" y="25.74"/>
        <vehicle id="car3" eclass="HBEFA3/PC_G_EU4" CO2="3573.79" CO="76.71" HC="0.43" NOx="1.45" PMx="0.06" fuel="1.54" electricity="0.00" noise="62.77" route="route43" type="Car" waiting="0.00" lane="Road4_0" pos="43.42" speed="7.37" angle="90.00" x="43.42" y="498.40"/>
        <vehicle id="car4" eclass="HBEFA3/PC_G_EU4" CO2="3521.78" CO="80.94" HC="0.45" NOx="1.44" PMx="0.06" fuel="1.51" electricity="0.00" noise="62.59" route="route34" type="Car" waiting="0.00" lane="Road3_0" pos="36.56" speed="6.92" angle="270.00" x="963.44" y="501.60"/>
        <vehicle id="car5" eclass="HBEFA3/PC_G_EU4" CO2="3381.52" CO="87.92" HC="0.48" NOx="1.40" PMx="0.06" fuel="1.45" electricity="0.00" noise="62.15" route="route12" type="Car" waiting="0.00" lane="Road1_0" pos="27.17" speed="6.11" angle="180.00" x="498.40" y="972.83"/>
        <vehicle id="car6" eclass="HBEFA3/PC_G_EU4" CO2="2913.94" CO="130.79" HC="0.66" NOx="1.27" PMx="0.06" fuel="1.25" electricity="0.00" noise="60.80" route="route12" type="Car" waiting="0.00" lane="Road1_0" pos="7.54" speed="2.40" angle="180.00" x="498.40" y="992.46"/>
        <vehicle id="car7" eclass="HBEFA3/PC_G_EU4" CO2="2690.35" CO="130.58" HC="0.66" NOx="1.18" PMx="0.06" fuel="1.16" electricity="0.00" noise="59.21" route="route43" type="Car" waiting="0.00" lane="Road4_0" pos="7.51" speed="2.12" angle="90.00" x="7.51" y="498.40"/>
    </timestep>
    <timestep time="16.00">
        <vehicle id="car0" eclass="HBEFA3/PC_G_EU4" CO2="4535.47" CO="60.20" HC="0.38" NOx="1.81" PMx="0.07" fuel="1.95" electricity="0.00" noise="65.13" route="route34" type="Car" waiting="0.00" lane="Road3_0" pos="88.13" speed="11.00" angle="270.00" x="911.87" y="501.60"/>
        <vehicle id="car1" eclass="HBEFA3/PC_G_EU4" CO2="4160.40" CO="64.65" HC="0.39" NOx="1.67" PMx="0.07" fuel="1.79" electricity="0.00" noise="64.27" route="route21" type="Car" waiting="0.00" lane="Road2_0" pos="65.51" speed="9.66" angle="0.00" x="501.60" y="65.51"/>
        <vehicle id="car10" eclass="HBEFA3/PC_G_EU4" CO2="2686.49" CO="152.54" HC="0.76" NOx="1.21" PMx="0.06" fuel="1.15" electricity="0.00" noise="59.66" route="route21" type="Car" waiting="0.00" lane="Road2_0" pos="3.88" speed="0.78" angle="0.00" x="501.60" y="3.88"/>
        <vehicle id="car2" eclass="HBEFA3/PC_G_EU4" CO2="3419.08" CO="87.83" HC="0.48" NOx="1.41" PMx="0.06" fuel="1.47" electricity="0.00" noise="62.26" route="route21" type="Car" waiting="0.00" lane="Road2_0" pos="31.92" speed="6.18" angle="0.00" x="501.60" y="31.92"/>
        <vehicle id="car3" eclass="HBEFA3/PC_G_EU4" CO2="4243.64" CO="79.52" HC="0.46" NOx="1.74" PMx="0.07" fuel="1.82" electricity="0.00" noise="64.18" route="route43" type="Car" waiting="0.00" lane="Road4_0" pos="51.78" speed="8.36" angle="90.00" x="51.78" y="498.40"/>
        <vehicle id="car4" eclass="HBEFA3/PC_G_EU4" CO2="3084.33" CO="65.96" HC="0.37" NOx="1.22" PMx="0.05" fuel="1.33" electricity="0.00" noise="61.80" route="route34" type="Car" waiting="0.00" lane="Road3_0" pos="43.99" speed="7.43" angle="270.00" x="956.01" y="501.60"/>
        <vehicle id="car5" eclass="HBEFA3/PC_G_EU4" CO2="3848.65" CO="85.98" HC="0.48" NOx="1.59" PMx="0.07" fuel="1.65" electricity="0.00" noise="63.32" route="route12" type="Car" waiting="0.00" lane="Road1_0" pos="34.23" speed="7.06" angle="180.00" x="498.40" y="965.77"/>
        <vehicle id="car6" eclass="HBEFA3/PC_G_EU4" CO2="3037.62" CO="119.83" HC="0.62" NOx="1.31" PMx="0.06" fuel="1.31" electricity="0.00" noise="61.16" route="route12" type="Car" waiting="0.00" lane="Road1_0" pos="10.82" speed="3.28" angle="180.00" x="498.40" y="989.18"/>
        <vehicle id="car7" eclass="HBEFA3/PC_G_EU4" CO2="2889.75" CO="122.78" HC="0.63" NOx="1.25" PMx="0.06" fuel="1.24" electricity="0.00" noise="60.47" route="route43" type="Car" waiting="0.00" lane="Road4_0" pos="10.39" speed="2.88" angle="90.00" x="10.39" y="498.40"/>
        <vehicle id="car8" eclass="HBEFA3/PC_G_EU4" CO2="2624.72" CO="164.78" HC="0.81" NOx="1.20" PMx="0.07" fuel="1.13" electricity="0.00" noise="55.94" route="route43" type="Car" waiting="0.00" lane="Road4_0" pos="3.10" speed="0.00" angle="90.00" x="3.10" y="498.40"/>
        <vehicle id="car9" eclass="HBEFA3/PC_G_EU4" CO2="2624.72" CO="164.78" HC="0.81" NOx="1.20" PMx="0.07" fuel="1.13" electricity="0.00" noise="55.94" route="route12" type="Car" waiting="0.00" lane="Road1_0" pos="3.10" speed="0.00" angle="180.00" x="498.40" y="996.90"/>
    </timestep>
    <timestep time="17.00">
        <vehicle id="car0" eclass="HBEFA3/PC_G_EU4" CO2="4591.99" CO="54.98" HC="0.36" NOx="1.82" PMx="0.07" fuel="1.97" electricity="0.00" noise="65.43" route="route34" type="Car" waiting="0.00" lane="Road3_0" pos="99.92" speed="11.79" angle="270.00" x="900.08" y="501.60"/>
        <vehicle id="car1" eclass="HBEFA3/PC_G_EU4" CO2="3994.91" CO="54.78" HC="0.34" NOx="1.57" PMx="0.06" fuel="1.72" electricity="0.00" noise="64.25" route="route21" type="Car" waiting="0.00" lane="Road2_0" pos="75.86" speed="10.35" angle="0.00" x="501.60" y="75.86"/>
        <vehicle id="car10" eclass="HBEFA3/PC_G_EU4" CO2="2717.23" CO="141.55" HC="0.71" NOx="1.21" PMx="0.06" fuel="1.17" electricity="0.00" noise="59.56" route="route21" type="Car" waiting="0.00" lane="Road2_0" pos="5.35" speed="1.47" angle="0.00" x="501.60" y="5.35"/>
        <vehicle id="car2" eclass="HBEFA3/PC_G_EU4" CO2="3019.17" CO="73.19" HC="0.40" NOx="1.21" PMx="0.05" fuel="1.30" electricity="0.00" noise="61.41" route="route21" type="Car" waiting="0.00" lane="Road2_0" pos="38.63" speed="6.70" angle="0.00" x="501.60" y="38.63"/>
        <vehicle id="car3" eclass="HBEFA3/PC_G_EU4" CO2="3888.34" CO="64.38" HC="0.38" NOx="1.56" PMx="0.06" fuel="1.67" electricity="0.00" noise="63.73" route="route43" type="Car" waiting="0.00" lane="Road4_0" pos="60.90" speed="9.12" angle="90.00" x="60.90" y="498.40"/>
        <vehicle id="car4" eclass="HBEFA3/PC_G_EU4" CO2="3425.87" CO="65.87" HC="0.38" NOx="1.37" PMx="0.05" fuel="1.47" electricity="0.00" noise="62.66" route="route34" type="Car" waiting="0.00" lane="Road3_0" pos="52.06" speed="8.07" angle="270.00" x="947.94" y="501.60"/>
        <vehicle id="car5" eclass="HBEFA3/PC_G_EU4" CO2="3347.10" CO="68.44" HC="0.39" NOx="1.34" PMx="0.05" fuel="1.44" electricity="0.00" noise="62.40" route="route12" type="Car" waiting="0.00" lane="Road1_0" pos="41.92" speed="7.69" angle="180.00" x="498.40" y="958.08"/>
        <vehicle id="car6" eclass="HBEFA3/PC_G_EU4" CO2="3269.73" CO="110.73" HC="0.58" NOx="1.39" PMx="0.06" fuel="1.41" electricity="0.00" noise="61.91" route="route12" type="Car" waiting="0.00" lane="Road1_0" pos="15.05" speed="4.23" angle="180.00" x="498.40" y="984.95"/>
        <vehicle id="car7" eclass="HBEFA3/PC_G_EU4" CO2="3229.71" CO="115.18" HC="0.60" NOx="1.38" PMx="0.06" fuel="1.39" electricity="0.00" noise="61.85" route="route43" type="Car" waiting="0.00" lane="Road4_0" pos="14.25" speed="3.86" angle="90.00" x="14.25" y="498.40"/>
        <vehicle id="car8" eclass="HBEFA3/PC_G_EU4" CO2="2637.09" CO="155.18" HC="0.77" NOx="1.19" PMx="0.06" fuel="1.13" electricity="0.00" noise="58.64" route="route43" type="Car" waiting="0.00" lane="Road4_0" pos="3.66" speed="0.56" angle="90.00" x="3.66" y="498.40"/>
        <vehicle id="car9" eclass="HBEFA3/PC_G_EU4" CO2="2717.71" CO="151.50" HC="0.75" NOx="1.22" PMx="0.06" fuel="1.17" electricity="0.00" noise="60.13" route="route12" type="Car" waiting="0.00" lane="Road1_0" pos="3.98" speed="0.88" angle="180.00" x="498.40" y="996.02"/>
    </timestep>
    <timestep time="18.00">
        <vehicle id="car0" eclass="HBEFA3/PC_G_EU4" CO2="4007.82" CO="38.73" HC="0.27" NOx="1.53" PMx="0.06" fuel="1.72" electricity="0.00" noise="65.04" route="route34" type="Car" waiting="0.00" lane="Road3_0" pos="112.26" speed="12.34" angle="270.00" x="887.74" y="501.60"/>
        <vehicle id="car1" eclass="HBEFA3/PC_G_EU4" CO2="4901.28" CO="65.40" HC="0.41" NOx="1.98" PMx="0.08" fuel="2.11" electricity="0.00" noise="65.65" route="route21" type="Car" waiting="0.00" lane="Road2_0" pos="87.15" speed="11.28" angle="0.00" x="501.60" y="87.15"/>
        <vehicle id="car10" eclass="HBEFA3/PC_G_EU4" CO2="2660.85" CO="132.14" HC="0.66" NOx="1.17" PMx="0.06" fuel="1.14" electricity="0.00" noise="58.96" route="route21" type="Car" waiting="0.00" lane="Road2_0" pos="7.33" speed="1.98" angle="0.00" x="501.60" y="7.33"/>
        <vehicle id="car2" eclass="HBEFA3/PC_G_EU4" CO2="3505.54" CO="74.62" HC="0.42" NOx="1.42" PMx="0.06" fuel="1.51" electricity="0.00" noise="62.64" route="route21" type="Car" waiting="0.00" lane="Road2_0" pos="46.06" speed="7.43" angle="0.00" x="501.60" y="46.06"/>
        <vehicle id="car3" eclass="HBEFA3/PC_G_EU4" CO2="4660.49" CO="70.92" HC="0.43" NOx="1.90" PMx="0.08" fuel="2.00" electricity="0.00" noise="65.08" route="route43" type="Car" waiting="0.00" lane="Road4_0" pos="70.98" speed="10.09" angle="90.00" x="70.98" y="498.40"/>
        <vehicle id="car4" eclass="HBEFA3/PC_G_EU4" CO2="3959.05" CO="68.29" HC="0.40" NOx="1.60" PMx="0.06" fuel="1.70" electricity="0.00" noise="63.78" route="route34" type="Car" waiting="0.00" lane="Road3_0" pos="60.93" speed="8.87" angle="270.00" x="939.07" y="501.60"/>
        <vehicle id="car5" eclass="HBEFA3/PC_G_EU4" CO2="4078.45" CO="73.82" HC="0.43" NOx="1.66" PMx="0.07" fuel="1.75" electricity="0.00" noise="63.92" route="route12" type="Car" waiting="0.00" lane="Road1_0" pos="50.50" speed="8.58" angle="180.00" x="498.40" y="949.50"/>
        <vehicle id="car6" eclass="HBEFA3/PC_G_EU4" CO2="3003.84" CO="96.26" HC="0.51" NOx="1.25" PMx="0.05" fuel="1.29" electricity="0.00" noise="60.93" route="route12" type="Car" waiting="0.00" lane="Road1_0" pos="19.93" speed="4.88" angle="180.00" x="498.40" y="980.07"/>