<?xml version="1.0" encoding="UTF-8"?>

<!-- generated on 05/27/19 09:48:07 by Eclipse SUMO GUI Version 1.1.0
<configuration xmlns:xsi="http://www.w3.org/2001/XMLSchema-instance" xsi:noNamespaceSchemaLocation="http://sumo.dlr.de/xsd/sumoConfiguration.xsd">

    <input>
        <net-file value="NetFile.net.xml"/>
        <route-files value="TempLoad.rou.xml"/>
    </input>

    <output>
        <emission-output value="results/emission6.xml"/>
        <tripinfo-output value="results/tripinfo6.xml"/>
    </output>

    <time>
        <begin value="0"/>
    </time>

    <report>
        <verbose value="true"/>
        <no-step-log value="true"/>
    </report>

    <traci_server>
        <remote-port value="8873"/>
    </traci_server>

    <gui_only>
        <gui-settings-file value="nylandsvejPlainTest.set.xml"/>
    </gui_only>

</configuration>
-->

<emission-export xmlns:xsi="http://www.w3.org/2001/XMLSchema-instance" xsi:noNamespaceSchemaLocation="http://sumo.dlr.de/xsd/emission_file.xsd">
    <timestep time="0.00"/>
    <timestep time="1.00">
        <vehicle id="car0" eclass="HBEFA3/PC_G_EU4" CO2="2624.72" CO="164.78" HC="0.81" NOx="1.20" PMx="0.07" fuel="1.13" electricity="0.00" noise="55.94" route="route43" type="Car" waiting="0.00" lane="Road4_1" pos="3.10" speed="0.00" angle="90.00" x="3.10" y="495.20"/>
    </timestep>
    <timestep time="2.00">
        <vehicle id="car0" eclass="HBEFA3/PC_G_EU4" CO2="2635.34" CO="155.32" HC="0.77" NOx="1.19" PMx="0.06" fuel="1.13" electricity="0.00" noise="58.59" route="route43" type="Car" waiting="0.00" lane="Road4_1" pos="3.65" speed="0.55" angle="90.00" x="3.65" y="495.20"/>
        <vehicle id="car2" eclass="HBEFA3/PC_G_EU4" CO2="2624.72" CO="164.78" HC="0.81" NOx="1.20" PMx="0.07" fuel="1.13" electricity="0.00" noise="55.94" route="route34" type="Car" waiting="0.00" lane="Road3_2" pos="3.10" speed="0.00" angle="270.00" x="996.90" y="501.60"/>
    </timestep>
    <timestep time="3.00">
        <vehicle id="car0" eclass="HBEFA3/PC_G_EU4" CO2="2834.59" CO="143.00" HC="0.72" NOx="1.26" PMx="0.06" fuel="1.22" electricity="0.00" noise="60.83" route="route43" type="Car" waiting="0.00" lane="Road4_1" pos="5.19" speed="1.53" angle="90.00" x="5.19" y="495.20"/>
        <vehicle id="car2" eclass="HBEFA3/PC_G_EU4" CO2="2652.47" CO="154.14" HC="0.76" NOx="1.20" PMx="0.06" fuel="1.14" electricity="0.00" noise="59.02" route="route34" type="Car" waiting="0.00" lane="Road3_2" pos="3.74" speed="0.64" angle="270.00" x="996.26" y="501.60"/>
    </timestep>
    <timestep time="4.00">
        <vehicle id="car0" eclass="HBEFA3/PC_G_EU4" CO2="2784.84" CO="130.63" HC="0.66" NOx="1.22" PMx="0.06" fuel="1.20" electricity="0.00" noise="59.93" route="route43" type="Car" waiting="0.00" lane="Road4_1" pos="7.42" speed="2.24" angle="90.00" x="7.42" y="495.20"/>
        <vehicle id="car2" eclass="HBEFA3/PC_G_EU4" CO2="2733.54" CO="143.12" HC="0.72" NOx="1.22" PMx="0.06" fuel="1.18" electricity="0.00" noise="59.80" route="route34" type="Car" waiting="0.00" lane="Road3_2" pos="5.14" speed="1.40" angle="270.00" x="994.86" y="501.60"/>
        <vehicle id="car3" eclass="HBEFA3/PC_G_EU4" CO2="2624.72" CO="164.78" HC="0.81" NOx="1.20" PMx="0.07" fuel="1.13" electricity="0.00" noise="55.94" route="route43" type="Car" waiting="0.00" lane="Road4_0" pos="3.10" speed="0.00" angle="90.00" x="3.10" y="492.00"/>
        <vehicle id="car4" eclass="HBEFA3/PC_G_EU4" CO2="2624.72" CO="164.78" HC="0.81" NOx="1.20" PMx="0.07" fuel="1.13" electricity="0.00" noise="55.94" route="route34" type="Car" waiting="0.00" lane="Road3_1" pos="3.10" speed="0.00" angle="270.00" x="996.90" y="504.80"/>
    </timestep>
    <timestep time="5.00">
        <vehicle id="car0" eclass="HBEFA3/PC_G_EU4" CO2="2871.09" CO="121.13" HC="0.62" NOx="1.24" PMx="0.06" fuel="1.23" electricity="0.00" noise="60.34" route="route43" type="Car" waiting="0.00" lane="Road4_1" pos="10.39" speed="2.96" angle="90.00" x="10.39" y="495.20"/>
        <vehicle id="car1" eclass="HBEFA3/PC_G_EU4" CO2="2624.72" CO="164.78" HC="0.81" NOx="1.20" PMx="0.07" fuel="1.13" electricity="0.00" noise="55.94" route="route43" type="Car" waiting="0.00" lane="Road4_1" pos="3.10" speed="0.00" angle="90.00" x="3.10" y="495.20"/>
        <vehicle id="car2" eclass="HBEFA3/PC_G_EU4" CO2="2889.70" CO="132.19" HC="0.67" NOx="1.27" PMx="0.06" fuel="1.24" electricity="0.00" noise="60.69" route="route34" type="Car" waiting="0.00" lane="Road3_2" pos="7.42" speed="2.27" angle="270.00" x="992.58" y="501.60"/>
        <vehicle id="car3" eclass="HBEFA3/PC_G_EU4" CO2="2754.74" CO="150.56" HC="0.75" NOx="1.24" PMx="0.06" fuel="1.18" electricity="0.00" noise="60.62" route="route43" type="Car" waiting="0.00" lane="Road4_0" pos="4.08" speed="0.98" angle="90.00" x="4.08" y="492.00"/>
        <vehicle id="car4" eclass="HBEFA3/PC_G_EU4" CO2="2649.21" CO="154.34" HC="0.76" NOx="1.20" PMx="0.06" fuel="1.14" electricity="0.00" noise="58.94" route="route34" type="Car" waiting="0.00" lane="Road3_1" pos="3.73" speed="0.63" angle="270.00" x="996.27" y="504.80"/>
        <vehicle id="car5" eclass="HBEFA3/PC_G_EU4" CO2="2624.72" CO="164.78" HC="0.81" NOx="1.20" PMx="0.07" fuel="1.13" electricity="0.00" noise="55.94" route="route12" type="Car" waiting="0.00" lane="Road1_0" pos="3.10" speed="0.00" angle="180.00" x="492.00" y="996.90"/>
        <vehicle id="car6" eclass="HBEFA3/PC_G_EU4" CO2="2624.72" CO="164.78" HC="0.81" NOx="1.20" PMx="0.07" fuel="1.13" electricity="0.00" noise="55.94" route="route43" type="Car" waiting="0.00" lane="Road4_2" pos="3.10" speed="0.00" angle="90.00" x="3.10" y="498.40"/>
    </timestep>
    <timestep time="6.00">
        <vehicle id="car0" eclass="HBEFA3/PC_G_EU4" CO2="2941.32" CO="111.89" HC="0.58" NOx="1.25" PMx="0.06" fuel="1.26" electricity="0.00" noise="60.63" route="route43" type="Car" waiting="0.00" lane="Road4_1" pos="14.07" speed="3.68" angle="90.00" x="14.07" y="495.20"/>
        <vehicle id="car1" eclass="HBEFA3/PC_G_EU4" CO2="2609.06" CO="160.09" HC="0.79" NOx="1.19" PMx="0.06" fuel="1.12" electricity="0.00" noise="57.13" route="route43" type="Car" waiting="0.00" lane="Road4_1" pos="3.35" speed="0.25" angle="90.00" x="3.35" y="495.20"/>
        <vehicle id="car2" eclass="HBEFA3/PC_G_EU4" CO2="2917.11" CO="120.80" HC="0.62" NOx="1.26" PMx="0.06" fuel="1.25" electricity="0.00" noise="60.58" route="route34" type="Car" waiting="0.00" lane="Road3_2" pos="10.46" speed="3.05" angle="270.00" x="989.54" y="501.60"/>
        <vehicle id="car3" eclass="HBEFA3/PC_G_EU4" CO2="2716.80" CO="138.78" HC="0.69" NOx="1.20" PMx="0.06" fuel="1.17" electricity="0.00" noise="59.50" route="route43" type="Car" waiting="0.00" lane="Road4_0" pos="5.72" speed="1.64" angle="90.00" x="5.72" y="492.00"/>
        <vehicle id="car4" eclass="HBEFA3/PC_G_EU4" CO2="2737.90" CO="143.26" HC="0.72" NOx="1.22" PMx="0.06" fuel="1.18" electricity="0.00" noise="59.85" route="route34" type="Car" waiting="0.00" lane="Road3_1" pos="5.12" speed="1.40" angle="270.00" x="994.88" y="504.80"/>
        <vehicle id="car5" eclass="HBEFA3/PC_G_EU4" CO2="2762.26" CO="150.40" HC="0.75" NOx="1.24" PMx="0.06" fuel="1.19" electricity="0.00" noise="60.71" route="route12" type="Car" waiting="0.00" lane="Road1_0" pos="4.10" speed="1.00" angle="180.00" x="492.00" y="995.90"/>
        <vehicle id="car6" eclass="HBEFA3/PC_G_EU4" CO2="2649.02" CO="154.35" HC="0.76" NOx="1.20" PMx="0.06" fuel="1.14" electricity="0.00" noise="58.94" route="route43" type="Car" waiting="0.00" lane="Road4_2" pos="3.73" speed="0.63" angle="90.00" x="3.73" y="498.40"/>
    </timestep>
    <timestep time="7.00">
        <vehicle id="car0" eclass="HBEFA3/PC_G_EU4" CO2="3061.83" CO="103.75" HC="0.54" NOx="1.29" PMx="0.06" fuel="1.32" electricity="0.00" noise="61.10" route="route43" type="Car" waiting="0.00" lane="Road4_0" pos="18.49" speed="4.42" angle="90.00" x="18.49" y="492.00"/>
        <vehicle id="car1" eclass="HBEFA3/PC_G_EU4" CO2="2733.64" CO="148.17" HC="0.74" NOx="1.23" PMx="0.06" fuel="1.18" electricity="0.00" noise="60.08" route="route43" type="Car" waiting="0.00" lane="Road4_1" pos="4.44" speed="1.09" angle="90.00" x="4.44" y="495.20"/>
        <vehicle id="car2" eclass="HBEFA3/PC_G_EU4" CO2="3254.63" CO="113.37" HC="0.59" NOx="1.39" PMx="0.06" fuel="1.40" electricity="0.00" noise="61.91" route="route34" type="Car" waiting="0.00" lane="Road3_2" pos="14.49" speed="4.03" angle="270.00" x="985.51" y="501.60"/>
        <vehicle id="car3" eclass="HBEFA3/PC_G_EU4" CO2="2893.70" CO="129.04" HC="0.65" NOx="1.26" PMx="0.06" fuel="1.24" electricity="0.00" noise="60.62" route="route43" type="Car" waiting="0.00" lane="Road4_0" pos="8.20" speed="2.48" angle="90.00" x="8.20" y="492.00"/>
        <vehicle id="car4" eclass="HBEFA3/PC_G_EU4" CO2="2743.70" CO="132.69" HC="0.67" NOx="1.20" PMx="0.06" fuel="1.18" electricity="0.00" noise="59.65" route="route34" type="Car" waiting="0.00" lane="Road3_1" pos="7.18" speed="2.05" angle="270.00" x="992.82" y="504.80"/>
        <vehicle id="car5" eclass="HBEFA3/PC_G_EU4" CO2="2670.00" CO="139.17" HC="0.70" NOx="1.18" PMx="0.06" fuel="1.15" electricity="0.00" noise="59.02" route="route12" type="Car" waiting="0.00" lane="Road1_0" pos="5.66" speed="1.56" angle="180.00" x="492.00" y="994.34"/>
        <vehicle id="car6" eclass="HBEFA3/PC_G_EU4" CO2="2841.32" CO="142.07" HC="0.71" NOx="1.26" PMx="0.06" fuel="1.22" electricity="0.00" noise="60.82" route="route43" type="Car" waiting="0.00" lane="Road4_2" pos="5.32" speed="1.60" angle="90.00" x="5.32" y="498.40"/>
    </timestep>
    <timestep time="8.00">
        <vehicle id="car0" eclass="HBEFA3/PC_G_EU4" CO2="2939.64" CO="93.16" HC="0.49" NOx="1.22" PMx="0.05" fuel="1.26" electricity="0.00" noise="60.74" route="route43" type="Car" waiting="0.00" lane="Road4_0" pos="23.51" speed="5.01" angle="90.00" x="23.51" y="492.00"/>
        <vehicle id="car1" eclass="HBEFA3/PC_G_EU4" CO2="2853.16" CO="136.18" HC="0.69" NOx="1.26" PMx="0.06" fuel="1.23" electricity="0.00" noise="60.59" route="route43" type="Car" waiting="0.00" lane="Road4_1" pos="6.42" speed="1.98" angle="90.00" x="6.42" y="495.20"/>
        <vehicle id="car2" eclass="HBEFA3/PC_G_EU4" CO2="3087.12" CO="99.72" HC="0.52" NOx="1.29" PMx="0.05" fuel="1.33" electricity="0.00" noise="61.20" route="route34" type="Car" waiting="0.00" lane="Road3_2" pos="19.24" speed="4.75" angle="270.00" x="980.76" y="501.60"/>
        <vehicle id="car3" eclass="HBEFA3/PC_G_EU4" CO2="2591.00" CO="117.14" HC="0.59" NOx="1.11" PMx="0.05" fuel="1.11" electricity="0.00" noise="58.73" route="route43" type="Car" waiting="0.00" lane="Road4_0" pos="11.05" speed="2.85" angle="90.00" x="11.05" y="492.00"/>
        <vehicle id="car4" eclass="HBEFA3/PC_G_EU4" CO2="2914.93" CO="123.69" HC="0.63" NOx="1.26" PMx="0.06" fuel="1.25" electricity="0.00" noise="60.62" route="route34" type="Car" waiting="0.00" lane="Road3_1" pos="10.03" speed="2.86" angle="270.00" x="989.97" y="504.80"/>
        <vehicle id="car5" eclass="HBEFA3/PC_G_EU4" CO2="2676.82" CO="130.74" HC="0.66" NOx="1.17" PMx="0.06" fuel="1.15" electricity="0.00" noise="59.10" route="route12" type="Car" waiting="0.00" lane="Road1_0" pos="7.75" speed="2.09" angle="180.00" x="492.00" y="992.25"/>
        <vehicle id="car6" eclass="HBEFA3/PC_G_EU4" CO2="2775.82" CO="129.75" HC="0.65" NOx="1.21" PMx="0.06" fuel="1.19" electricity="0.00" noise="59.85" route="route43" type="Car" waiting="0.00" lane="Road4_2" pos="7.61" speed="2.28" angle="90.00" x="7.61" y="498.40"/>
    </timestep>
    <timestep time="9.00">
        <vehicle id="car0" eclass="HBEFA3/PC_G_EU4" CO2="3049.64" CO="87.25" HC="0.47" NOx="1.25" PMx="0.05" fuel="1.31" electricity="0.00" noise="61.20" route="route43" type="Car" waiting="0.00" lane="Road4_0" pos="29.14" speed="5.63" angle="90.00" x="29.14" y="492.00"/>
        <vehicle id="car1" eclass="HBEFA3/PC_G_EU4" CO2="2788.83" CO="124.50" HC="0.63" NOx="1.21" PMx="0.06" fuel="1.20" electricity="0.00" noise="59.89" route="route43" type="Car" waiting="0.00" lane="Road4_1" pos="9.05" speed="2.63" angle="90.00" x="9.05" y="495.20"/>
        <vehicle id="car2" eclass="HBEFA3/PC_G_EU4" CO2="3612.09" CO="97.44" HC="0.53" NOx="1.51" PMx="0.06" fuel="1.55" electricity="0.00" noise="62.77" route="route34" type="Car" waiting="0.00" lane="Road3_1" pos="24.98" speed="5.74" angle="270.00" x="975.02" y="504.80"/>
        <vehicle id="car3" eclass="HBEFA3/PC_G_EU4" CO2="3151.29" CO="114.95" HC="0.60" NOx="1.35" PMx="0.06" fuel="1.35" electricity="0.00" noise="61.54" route="route43" type="Car" waiting="0.00" lane="Road4_0" pos="14.82" speed="3.77" angle="90.00" x="14.82" y="492.00"/>
        <vehicle id="car4" eclass="HBEFA3/PC_G_EU4" CO2="2735.31" CO="112.13" HC="0.57" NOx="1.16" PMx="0.05" fuel="1.18" electricity="0.00" noise="59.65" route="route34" type="Car" waiting="0.00" lane="Road3_1" pos="13.41" speed="3.38" angle="270.00" x="986.59" y="504.80"/>
        <vehicle id="car5" eclass="HBEFA3/PC_G_EU4" CO2="2961.67" CO="123.38" HC="0.63" NOx="1.28" PMx="0.06" fuel="1.27" electricity="0.00" noise="60.86" route="route12" type="Car" waiting="0.00" lane="Road1_0" pos="10.68" speed="2.94" angle="180.00" x="492.00" y="989.32"/>
        <vehicle id="car6" eclass="HBEFA3/PC_G_EU4" CO2="3121.94" CO="121.77" HC="0.63" NOx="1.35" PMx="0.06" fuel="1.34" electricity="0.00" noise="61.59" route="route43" type="Car" waiting="0.00" lane="Road4_2" pos="10.87" speed="3.26" angle="90.00" x="10.87" y="498.40"/>
        <vehicle id="car7" eclass="HBEFA3/PC_G_EU4" CO2="2624.72" CO="164.78" HC="0.81" NOx="1.20" PMx="0.07" fuel="1.13" electricity="0.00" noise="55.94" route="route43" type="Car" waiting="0.00" lane="Road4_2" pos="3.10" speed="0.00" angle="90.00" x="3.10" y="498.40"/>
    </timestep>
    <timestep time="10.00">
        <vehicle id="car0" eclass="HBEFA3/PC_G_EU4" CO2="3445.36" CO="85.36" HC="0.47" NOx="1.42" PMx="0.06" fuel="1.48" electricity="0.00" noise="62.35" route="route43" type="Car" waiting="0.00" lane="Road4_0" pos="35.56" speed="6.42" angle="90.00" x="35.56" y="492.00"/>
        <vehicle id="car1" eclass="HBEFA3/PC_G_EU4" CO2="3110.68" CO="117.30" HC="0.61" NOx="1.34" PMx="0.06" fuel="1.34" electricity="0.00" noise="61.42" route="route43" type="Car" waiting="0.00" lane="Road4_1" pos="12.60" speed="3.55" angle="90.00" x="12.60" y="495.20"/>
        <vehicle id="car10" eclass="HBEFA3/PC_G_EU4" CO2="2624.72" CO="164.78" HC="0.81" NOx="1.20" PMx="0.07" fuel="1.13" electricity="0.00" noise="55.94" route="route21" type="Car" waiting="0.00" lane="Road2_0" pos="3.10" speed="0.00" angle="0.00" x="508.00" y="3.10"/>
        <vehicle id="car11" eclass="HBEFA3/PC_G_EU4" CO2="2624.72" CO="164.78" HC="0.81" NOx="1.20" PMx="0.07" fuel="1.13" electricity="0.00" noise="55.94" route="route34" type="Car" waiting="0.00" lane="Road3_2" pos="3.10" speed="0.00" angle="270.00" x="996.90" y="501.60"/>
        <vehicle id="car12" eclass="HBEFA3/PC_G_EU4" CO2="2624.72" CO="164.78" HC="0.81" NOx="1.20" PMx="0.07" fuel="1.13" electricity="0.00" noise="55.94" route="route12" type="Car" waiting="0.00" lane="Road1_2" pos="3.10" speed="0.00" angle="180.00" x="498.40" y="996.90"/>
        <vehicle id="car2" eclass="HBEFA3/PC_G_EU4" CO2="3604.77" CO="86.42" HC="0.48" NOx="1.49" PMx="0.06" fuel="1.55" electricity="0.00" noise="62.74" route="route34" type="Car" waiting="0.00" lane="Road3_1" pos="31.59" speed="6.61" angle="270.00" x="968.41" y="504.80"/>
        <vehicle id="car3" eclass="HBEFA3/PC_G_EU4" CO2="2791.19" CO="100.13" HC="0.52" NOx="1.17" PMx="0.05" fuel="1.20" electricity="0.00" noise="60.08" route="route43" type="Car" waiting="0.00" lane="Road4_0" pos="19.10" speed="4.29" angle="90.00" x="19.10" y="492.00"/>
        <vehicle id="car4" eclass="HBEFA3/PC_G_EU4" CO2="3201.90" CO="108.87" HC="0.57" NOx="1.36" PMx="0.06" fuel="1.38" electricity="0.00" noise="61.64" route="route34" type="Car" waiting="0.00" lane="Road3_0" pos="17.67" speed="4.27" angle="270.00" x="982.33" y="508.00"/>
        <vehicle id="car5" eclass="HBEFA3/PC_G_EU4" CO2="3186.77" CO="114.11" HC="0.59" NOx="1.36" PMx="0.06" fuel="1.37" electricity="0.00" noise="61.67" route="route12" type="Car" waiting="0.00" lane="Road1_0" pos="14.56" speed="3.88" angle="180.00" x="492.00" y="985.44"/>
        <vehicle id="car6" eclass="HBEFA3/PC_G_EU4" CO2="3116.20" CO="109.47" HC="0.57" NOx="1.32" PMx="0.06" fuel="1.34" electricity="0.00" noise="61.33" route="route43" type="Car" waiting="0.00" lane="Road4_2" pos="14.97" speed="4.10" angle="90.00" x="14.97" y="498.40"/>
        <vehicle id="car7" eclass="HBEFA3/PC_G_EU4" CO2="2670.24" CO="153.22" HC="0.76" NOx="1.21" PMx="0.06" fuel="1.15" electricity="0.00" noise="59.38" route="route43" type="Car" waiting="0.00" lane="Road4_2" pos="3.82" speed="0.72" angle="90.00" x="3.82" y="498.40"/>
        <vehicle id="car8" eclass="HBEFA3/PC_G_EU4" CO2="2624.72" CO="164.78" HC="0.81" NOx="1.20" PMx="0.07" fuel="1.13" electricity="0.00" noise="55.94" route="route43" type="Car" waiting="0.00" lane="Road4_1" pos="3.10" speed="0.00" angle="90.00" x="3.10" y="495.20"/>
    </timestep>
    <timestep time="11.00">
        <vehicle id="car0" eclass="HBEFA3/PC_G_EU4" CO2="3306.71" CO="74.63" HC="0.42" NOx="1.33" PMx="0.05" fuel="1.42" electricity="0.00" noise="62.15" route="route43" type="Car" waiting="0.00" lane="Road4_0" pos="42.64" speed="7.08" angle="90.00" x="42.64" y="492.00"/>
        <vehicle id="car1" eclass="HBEFA3/PC_G_EU4" CO2="3175.59" CO="106.49" HC="0.56" NOx="1.34" PMx="0.06" fuel="1.37" electricity="0.00" noise="61.52" route="route43" type="Car" waiting="0.00" lane="Road4_1" pos="17.00" speed="4.40" angle="90.00" x="17.00" y="495.20"/>
        <vehicle id="car10" eclass="HBEFA3/PC_G_EU4" CO2="2718.24" CO="151.48" HC="0.75" NOx="1.22" PMx="0.06" fuel="1.17" electricity="0.00" noise="60.14" route="route21" type="Car" waiting="0.00" lane="Road2_0" pos="3.98" speed="0.88" angle="0.00" x="508.00" y="3.98"/>
        <vehicle id="car11" eclass="HBEFA3/PC_G_EU4" CO2="2669.02" CO="153.28" HC="0.76" NOx="1.21" PMx="0.06" fuel="1.15" electricity="0.00" noise="59.35" route="route34" type="Car" waiting="0.00" lane="Road3_2" pos="3.81" speed="0.71" angle="270.00" x="996.19" y="501.60"/>
        <vehicle id="car12" eclass="HBEFA3/PC_G_EU4" CO2="2642.42" CO="154.79" HC="0.77" NOx="1.20" PMx="0.06" fuel="1.14" electricity="0.00" noise="58.78" route="route12" type="Car" waiting="0.00" lane="Road1_2" pos="3.69" speed="0.59" angle="180.00" x="498.40" y="996.31"/>
        <vehicle id="car2" eclass="HBEFA3/PC_G_EU4" CO2="3064.71" CO="69.09" HC="0.38" NOx="1.22" PMx="0.05" fuel="1.32" electricity="0.00" noise="61.66" route="route34" type="Car" waiting="0.00" lane="Road3_1" pos="38.71" speed="7.13" angle="270.00" x="961.29" y="504.80"/>
        <vehicle id="car3" eclass="HBEFA3/PC_G_EU4" CO2="2850.53" CO="93.96" HC="0.49" NOx="1.18" PMx="0.05" fuel="1.23" electricity="0.00" noise="60.41" route="route43" type="Car" waiting="0.00" lane="Road4_0" pos="23.92" speed="4.82" angle="90.00" x="23.92" y="492.00"/>
        <vehicle id="car4" eclass="HBEFA3/PC_G_EU4" CO2="3461.61" CO="101.11" HC="0.54" NOx="1.46" PMx="0.06" fuel="1.49" electricity="0.00" noise="62.39" route="route34" type="Car" waiting="0.00" lane="Road3_0" pos="22.90" speed="5.22" angle="270.00" x="977.10" y="508.00"/>
        <vehicle id="car5" eclass="HBEFA3/PC_G_EU4" CO2="3032.83" CO="101.02" HC="0.53" NOx="1.27" PMx="0.05" fuel="1.30" electricity="0.00" noise="61.00" route="route12" type="Car" waiting="0.00" lane="Road1_0" pos="19.14" speed="4.58" angle="180.00" x="492.00" y="980.86"/>
        <vehicle id="car6" eclass="HBEFA3/PC_G_EU4" CO2="3011.80" CO="98.01" HC="0.52" NOx="1.26" PMx="0.05" fuel="1.29" electricity="0.00" noise="60.94" route="route43" type="Car" waiting="0.00" lane="Road4_2" pos="19.73" speed="4.76" angle="90.00" x="19.73" y="498.40"/>
        <vehicle id="car7" eclass="HBEFA3/PC_G_EU4" CO2="2690.52" CO="142.85" HC="0.71" NOx="1.20" PMx="0.06" fuel="1.16" electricity="0.00" noise="59.29" route="route43" type="Car" waiting="0.00" lane="Road4_2" pos="5.18" speed="1.36" angle="90.00" x="5.18" y="498.40"/>
        <vehicle id="car8" eclass="HBEFA3/PC_G_EU4" CO2="2679.47" CO="152.82" HC="0.76" NOx="1.21" PMx="0.06" fuel="1.15" electricity="0.00" noise="59.54" route="route43" type="Car" waiting="0.00" lane="Road4_1" pos="3.85" speed="0.75" angle="90.00" x="3.85" y="495.20"/>
    </timestep>
    <timestep time="12.00">
        <vehicle id="car0" eclass="HBEFA3/PC_G_EU4" CO2="3870.36" CO="76.43" HC="0.44" NOx="1.58" PMx="0.06" fuel="1.66" electricity="0.00" noise="63.45" route="route43" type="Car" waiting="0.00" lane="Road4_0" pos="50.58" speed="7.94" angle="90.00" x="50.58" y="492.00"/>
        <vehicle id="car1" eclass="HBEFA3/PC_G_EU4" CO2="3505.70" CO="100.14" HC="0.54" NOx="1.47" PMx="0.06" fuel="1.51" electricity="0.00" noise="62.51" route="route43" type="Car" waiting="0.00" lane="Road4_1" pos="22.36" speed="5.36" angle="90.00" x="22.36" y="495.20"/>
        <vehicle id="car10" eclass="HBEFA3/PC_G_EU4" CO2="2845.63" CO="138.94" HC="0.70" NOx="1.26" PMx="0.06" fuel="1.22" electricity="0.00" noise="60.67" route="route21" type="Car" waiting="0.00" lane="Road2_0" pos="5.77" speed="1.80" angle="0.00" x="508.00" y="5.77"/>
        <vehicle id="car11" eclass="HBEFA3/PC_G_EU4" CO2="2719.42" CO="142.40" HC="0.71" NOx="1.21" PMx="0.06" fuel="1.17" electricity="0.00" noise="59.61" route="route34" type="Car" waiting="0.00" lane="Road3_2" pos="5.24" speed="1.42" angle="270.00" x="994.76" y="501.60"/>
        <vehicle id="car12" eclass="HBEFA3/PC_G_EU4" CO2="2641.73" CO="145.91" HC="0.73" NOx="1.18" PMx="0.06" fuel="1.14" electricity="0.00" noise="58.67" route="route12" type="Car" waiting="0.00" lane="Road1_2" pos="4.81" speed="1.12" angle="180.00" x="498.40" y="995.19"/>
        <vehicle id="car2" eclass="HBEFA3/PC_G_EU4" CO2="3161.83" CO="64.93" HC="0.37" NOx="1.25" PMx="0.05" fuel="1.36" electricity="0.00" noise="62.04" route="route34" type="Car" waiting="0.00" lane="Road3_1" pos="46.37" speed="7.66" angle="270.00" x="953.63" y="504.80"/>
        <vehicle id="car3" eclass="HBEFA3/PC_G_EU4" CO2="3196.80" CO="91.40" HC="0.49" NOx="1.32" PMx="0.05" fuel="1.37" electricity="0.00" noise="61.60" route="route43" type="Car" waiting="0.00" lane="Road4_0" pos="29.46" speed="5.54" angle="90.00" x="29.46" y="492.00"/>
        <vehicle id="car4" eclass="HBEFA3/PC_G_EU4" CO2="3575.55" CO="91.71" HC="0.50" NOx="1.49" PMx="0.06" fuel="1.54" electricity="0.00" noise="62.65" route="route34" type="Car" waiting="0.00" lane="Road3_0" pos="29.02" speed="6.13" angle="270.00" x="970.98" y="508.00"/>
        <vehicle id="car5" eclass="HBEFA3/PC_G_EU4" CO2="3575.99" CO="98.95" HC="0.53" NOx="1.50" PMx="0.06" fuel="1.54" electricity="0.00" noise="62.69" route="route12" type="Car" waiting="0.00" lane="Road1_0" pos="24.70" speed="5.56" angle="180.00" x="492.00" y="975.30"/>
        <vehicle id="car6" eclass="HBEFA3/PC_G_EU4" CO2="3114.80" CO="91.03" HC="0.49" NOx="1.29" PMx="0.05" fuel="1.34" electricity="0.00" noise="61.35" route="route43" type="Car" waiting="0.00" lane="Road4_2" pos="25.18" speed="5.44" angle="90.00" x="25.18" y="498.40"/>
        <vehicle id="car7" eclass="HBEFA3/PC_G_EU4" CO2="2919.68" CO="132.64" HC="0.67" NOx="1.28" PMx="0.06" fuel="1.26" electricity="0.00" noise="60.91" route="route43" type="Car" waiting="0.00" lane="Road4_2" pos="7.47" speed="2.29" angle="90.00" x="7.47" y="498.40"/>
        <vehicle id="car8" eclass="HBEFA3/PC_G_EU4" CO2="2825.52" CO="140.65" HC="0.71" NOx="1.25" PMx="0.06" fuel="1.21" electricity="0.00" noise="60.59" route="route43" type="Car" waiting="0.00" lane="Road4_1" pos="5.52" speed="1.66" angle="90.00" x="5.52" y="495.20"/>
    </timestep>
    <timestep time="13.00">
        <vehicle id="car0" eclass="HBEFA3/PC_G_EU4" CO2="4361.52" CO="76.15" HC="0.45" NOx="1.78" PMx="0.07" fuel="1.87" electricity="0.00" noise="64.45" route="route43" type="Car" waiting="0.00" lane="Road4_0" pos="59.49" speed="8.92" angle="90.00" x="59.49" y="492.00"/>
        <vehicle id="car1" eclass="HBEFA3/PC_G_EU4" CO2="3451.41" CO="88.44" HC="0.48" NOx="1.43" PMx="0.06" fuel="1.48" electricity="0.00" noise="62.34" route="route43" type="Car" waiting="0.00" lane="Road4_1" pos="28.55" speed="6.19" angle="90.00" x="28.55" y="495.20"/>
        <vehicle id="car10" eclass="HBEFA3/PC_G_EU4" CO2="2916.82" CO="127.07" HC="0.65" NOx="1.27" PMx="0.06" fuel="1.25" electricity="0.00" noise="60.70" route="route21" type="Car" waiting="0.00" lane="Road2_0" pos="8.41" speed="2.64" angle="0.00" x="508.00" y="8.41"/>
        <vehicle id="car11" eclass="HBEFA3/PC_G_EU4" CO2="2656.97" CO="132.92" HC="0.67" NOx="1.17" PMx="0.06" fuel="1.14" electricity="0.00" noise="58.92" route="route34" type="Car" waiting="0.00" lane="Road3_2" pos="7.17" speed="1.93" angle="270.00" x="992.83" y="501.60"/>
        <vehicle id="car12" eclass="HBEFA3/PC_G_EU4" CO2="2823.37" CO="136.03" HC="0.68" NOx="1.24" PMx="0.06" fuel="1.21" electricity="0.00" noise="60.36" route="route12" type="Car" waiting="0.00" lane="Road1_2" pos="6.76" speed="1.95" angle="180.00" x="498.40" y="993.24"/>
        <vehicle id="car14" eclass="HBEFA3/PC_G_EU4" CO2="2624.72" CO="164.78" HC="0.81" NOx="1.20" PMx="0.07" fuel="1.13" electricity="0.00" noise="55.94" route="route21" type="Car" waiting="0.00" lane="Road2_1" pos="3.10" speed="0.00" angle="0.00" x="504.80" y="3.10"/>
        <vehicle id="car15" eclass="HBEFA3/PC_G_EU4" CO2="2624.72" CO="164.78" HC="0.81" NOx="1.20" PMx="0.07" fuel="1.13" electricity="0.00" noise="55.94" route="route21" type="Car" waiting="0.00" lane="Road2_2" pos="3.10" speed="0.00" angle="0.00" x="501.60" y="3.10"/>
        <vehicle id="car2" eclass="HBEFA3/PC_G_EU4" CO2="3471.39" CO="64.27" HC="0.37" NOx="1.38" PMx="0.05" fuel="1.49" electricity="0.00" noise="62.81" route="route34" type="Car" waiting="0.00" lane="Road3_1" pos="54.68" speed="8.30" angle="270.00" x="945.32" y="504.80"/>
        <vehicle id="car3" eclass="HBEFA3/PC_G_EU4" CO2="3740.58" CO="90.46" HC="0.50" NOx="1.55" PMx="0.07" fuel="1.61" electricity="0.00" noise="63.06" route="route43" type="Car" waiting="0.00" lane="Road4_0" pos="35.97" speed="6.50" angle="90.00" x="35.97" y="492.00"/>
        <vehicle id="car4" eclass="HBEFA3/PC_G_EU4" CO2="3867.15" CO="86.08" HC="0.48" NOx="1.60" PMx="0.07" fuel="1.66" electricity="0.00" noise="63.36" route="route34" type="Car" waiting="0.00" lane="Road3_0" pos="36.11" speed="7.09" angle="270.00" x="963.89" y="508.00"/>
        <vehicle id="car5" eclass="HBEFA3/PC_G_EU4" CO2="3648.80" CO="88.94" HC="0.49" NOx="1.51" PMx="0.06" fuel="1.57" electricity="0.00" noise="62.84" route="route12" type="Car" waiting="0.00" lane="Road1_0" pos="31.18" speed="6.47" angle="180.00" x="492.00" y="968.82"/>
        <vehicle id="car6" eclass="HBEFA3/PC_G_EU4" CO2="3273.75" CO="85.11" HC="0.46" NOx="1.34" PMx="0.05" fuel="1.41" electricity="0.00" noise="61.89" route="route43" type="Car" waiting="0.00" lane="Road4_2" pos="31.34" speed="6.16" angle="90.00" x="31.34" y="498.40"/>
        <vehicle id="car7" eclass="HBEFA3/PC_G_EU4" CO2="3034.81" CO="121.21" HC="0.62" NOx="1.31" PMx="0.06" fuel="1.30" electricity="0.00" noise="61.17" route="route43" type="Car" waiting="0.00" lane="Road4_2" pos="10.65" speed="3.18" angle="90.00" x="10.65" y="498.40"/>
        <vehicle id="car8" eclass="HBEFA3/PC_G_EU4" CO2="2909.12" CO="128.76" HC="0.65" NOx="1.27" PMx="0.06" fuel="1.25" electricity="0.00" noise="60.70" route="route43" type="Car" waiting="0.00" lane="Road4_1" pos="8.04" speed="2.52" angle="90.00" x="8.04" y="495.20"/>
        <vehicle id="car9" eclass="HBEFA3/PC_G_EU4" CO2="2624.72" CO="164.78" HC="0.81" NOx="1.20" PMx="0.07" fuel="1.13" electricity="0.00" noise="55.94" route="route43" type="Car" waiting="0.00" lane="Road4_2" pos="3.10" speed="0.00" angle="90.00" x="3.10" y="498.40"/>
    </timestep>
    <timestep time="14.00">
        <vehicle id="car0" eclass="HBEFA3/PC_G_EU4" CO2="3356.37" CO="50.34" HC="0.31" NOx="1.30" PMx="0.05" fuel="1.44" electricity="0.00" noise="63.04" route="route43" type="Car" waiting="0.00" lane="Road4_0" pos="68.92" speed="9.43" angle="90.00" x="68.92" y="492.00"/>
        <vehicle id="car1" eclass="HBEFA3/PC_G_EU4" CO2="3860.89" CO="85.39" HC="0.48" NOx="1.59" PMx="0.07" fuel="1.66" electricity="0.00" noise="63.35" route="route43" type="Car" waiting="0.00" lane="Road4_1" pos="35.68" speed="7.13" angle="90.00" x="35.68" y="495.20"/>
        <vehicle id="car10" eclass="HBEFA3/PC_G_EU4" CO2="2880.82" CO="115.81" HC="0.59" NOx="1.23" PMx="0.06" fuel="1.24" electricity="0.00" noise="60.36" route="route21" type="Car" waiting="0.00" lane="Road2_0" pos="11.74" speed="3.33" angle="0.00" x="508.00" y="11.74"/>
        <vehicle id="car11" eclass="HBEFA3/PC_G_EU4" CO2="2888.43" CO="125.28" HC="0.64" NOx="1.25" PMx="0.06" fuel="1.24" electricity="0.00" noise="60.50" route="route34" type="Car" waiting="0.00" lane="Road3_2" pos="9.88" speed="2.72" angle="270.00" x="990.12" y="501.60"/>
        <vehicle id="car12" eclass="HBEFA3/PC_G_EU4" CO2="2904.70" CO="125.06" HC="0.64" NOx="1.26" PMx="0.06" fuel="1.25" electricity="0.00" noise="60.59" route="route12" type="Car" waiting="0.00" lane="Road1_2" pos="9.51" speed="2.75" angle="180.00" x="498.40" y="990.49"/>
        <vehicle id="car13" eclass="HBEFA3/PC_G_EU4" CO2="2624.72" CO="164.78" HC="0.81" NOx="1.20" PMx="0.07" fuel="1.13" electricity="0.00" noise="55.94" route="route43" type="Car" waiting="0.00" lane="Road4_1" pos="3.10" speed="0.00" angle="90.00" x="3.10" y="495.20"/>
        <vehicle id="car14" eclass="HBEFA3/PC_G_EU4" CO2="2656.20" CO="153.93" HC="0.76" NOx="1.20" PMx="0.06" fuel="1.14" electricity="0.00" noise="59.10" route="route21" type="Car" waiting="0.00" lane="Road2_1" pos="3.76" speed="0.66" angle="0.00" x="504.80" y="3.76"/>