<?xml version="1.0" encoding="UTF-8"?>

<!-- generated on 06/12/19 14:12:33 by Eclipse SUMO GUI Version 1.1.0
<configuration xmlns:xsi="http://www.w3.org/2001/XMLSchema-instance" xsi:noNamespaceSchemaLocation="http://sumo.dlr.de/xsd/sumoConfiguration.xsd">

    <input>
        <net-file value="NetFile.net.xml"/>
        <route-files value="TempLoad.rou.xml"/>
    </input>

    <output>
        <emission-output value="results/emission5.xml"/>
        <tripinfo-output value="results/tripinfo5.xml"/>
    </output>

    <time>
        <begin value="0"/>
    </time>

    <report>
        <verbose value="true"/>
        <no-step-log value="true"/>
    </report>

    <traci_server>
        <remote-port value="8873"/>
    </traci_server>

    <gui_only>
        <gui-settings-file value="nylandsvejPlainTest.set.xml"/>
    </gui_only>

</configuration>
-->

<emission-export xmlns:xsi="http://www.w3.org/2001/XMLSchema-instance" xsi:noNamespaceSchemaLocation="http://sumo.dlr.de/xsd/emission_file.xsd">
    <timestep time="0.00">
        <vehicle id="car0" eclass="HBEFA3/PC_G_EU4" CO2="2624.72" CO="164.78" HC="0.81" NOx="1.20" PMx="0.07" fuel="1.13" electricity="0.00" noise="55.94" route="route12" type="Car" waiting="0.00" lane="Road1_2" pos="3.10" speed="0.00" angle="180.00" x="498.40" y="996.90"/>
    </timestep>
    <timestep time="1.00">
        <vehicle id="car0" eclass="HBEFA3/PC_G_EU4" CO2="2635.34" CO="155.32" HC="0.77" NOx="1.19" PMx="0.06" fuel="1.13" electricity="0.00" noise="58.59" route="route12" type="Car" waiting="0.00" lane="Road1_2" pos="3.65" speed="0.55" angle="180.00" x="498.40" y="996.35"/>
        <vehicle id="car1" eclass="HBEFA3/PC_G_EU4" CO2="2624.72" CO="164.78" HC="0.81" NOx="1.20" PMx="0.07" fuel="1.13" electricity="0.00" noise="55.94" route="route43" type="Car" waiting="0.00" lane="Road4_2" pos="3.10" speed="0.00" angle="90.00" x="3.10" y="498.40"/>
    </timestep>
    <timestep time="2.00">
        <vehicle id="car0" eclass="HBEFA3/PC_G_EU4" CO2="2834.59" CO="143.00" HC="0.72" NOx="1.26" PMx="0.06" fuel="1.22" electricity="0.00" noise="60.83" route="route12" type="Car" waiting="0.00" lane="Road1_2" pos="5.19" speed="1.53" angle="180.00" x="498.40" y="994.81"/>
        <vehicle id="car1" eclass="HBEFA3/PC_G_EU4" CO2="2652.47" CO="154.14" HC="0.76" NOx="1.20" PMx="0.06" fuel="1.14" electricity="0.00" noise="59.02" route="route43" type="Car" waiting="0.00" lane="Road4_2" pos="3.74" speed="0.64" angle="90.00" x="3.74" y="498.40"/>
    </timestep>
    <timestep time="3.00">
        <vehicle id="car0" eclass="HBEFA3/PC_G_EU4" CO2="2784.84" CO="130.63" HC="0.66" NOx="1.22" PMx="0.06" fuel="1.20" electricity="0.00" noise="59.93" route="route12" type="Car" waiting="0.00" lane="Road1_2" pos="7.42" speed="2.24" angle="180.00" x="498.40" y="992.58"/>
        <vehicle id="car1" eclass="HBEFA3/PC_G_EU4" CO2="2733.54" CO="143.12" HC="0.72" NOx="1.22" PMx="0.06" fuel="1.18" electricity="0.00" noise="59.80" route="route43" type="Car" waiting="0.00" lane="Road4_2" pos="5.14" speed="1.40" angle="90.00" x="5.14" y="498.40"/>
        <vehicle id="car2" eclass="HBEFA3/PC_G_EU4" CO2="2624.72" CO="164.78" HC="0.81" NOx="1.20" PMx="0.07" fuel="1.13" electricity="0.00" noise="55.94" route="route21" type="Car" waiting="0.00" lane="Road2_0" pos="3.10" speed="0.00" angle="0.00" x="508.00" y="3.10"/>
    </timestep>
    <timestep time="4.00">
        <vehicle id="car0" eclass="HBEFA3/PC_G_EU4" CO2="3007.92" CO="121.69" HC="0.62" NOx="1.30" PMx="0.06" fuel="1.29" electricity="0.00" noise="61.06" route="route12" type="Car" waiting="0.00" lane="Road1_2" pos="10.54" speed="3.11" angle="180.00" x="498.40" y="989.46"/>
        <vehicle id="car1" eclass="HBEFA3/PC_G_EU4" CO2="2725.95" CO="132.76" HC="0.67" NOx="1.20" PMx="0.06" fuel="1.17" electricity="0.00" noise="59.50" route="route43" type="Car" waiting="0.00" lane="Road4_2" pos="7.17" speed="2.03" angle="90.00" x="7.17" y="498.40"/>
        <vehicle id="car2" eclass="HBEFA3/PC_G_EU4" CO2="2754.74" CO="150.56" HC="0.75" NOx="1.24" PMx="0.06" fuel="1.18" electricity="0.00" noise="60.62" route="route21" type="Car" waiting="0.00" lane="Road2_0" pos="4.08" speed="0.98" angle="0.00" x="508.00" y="4.08"/>
        <vehicle id="car3" eclass="HBEFA3/PC_G_EU4" CO2="2624.72" CO="164.78" HC="0.81" NOx="1.20" PMx="0.07" fuel="1.13" electricity="0.00" noise="55.94" route="route34" type="Car" waiting="0.00" lane="Road3_1" pos="3.10" speed="0.00" angle="270.00" x="996.90" y="504.80"/>
    </timestep>
    <timestep time="5.00">
        <vehicle id="car0" eclass="HBEFA3/PC_G_EU4" CO2="2899.83" CO="109.65" HC="0.57" NOx="1.23" PMx="0.05" fuel="1.25" electricity="0.00" noise="60.44" route="route12" type="Car" waiting="0.00" lane="Road1_2" pos="14.31" speed="3.78" angle="180.00" x="498.40" y="985.69"/>
        <vehicle id="car1" eclass="HBEFA3/PC_G_EU4" CO2="3089.91" CO="124.73" HC="0.64" NOx="1.34" PMx="0.06" fuel="1.33" electricity="0.00" noise="61.54" route="route43" type="Car" waiting="0.00" lane="Road4_2" pos="10.19" speed="3.02" angle="90.00" x="10.19" y="498.40"/>
        <vehicle id="car2" eclass="HBEFA3/PC_G_EU4" CO2="2699.23" CO="139.01" HC="0.70" NOx="1.20" PMx="0.06" fuel="1.16" electricity="0.00" noise="59.33" route="route21" type="Car" waiting="0.00" lane="Road2_0" pos="5.68" speed="1.61" angle="0.00" x="508.00" y="5.68"/>
        <vehicle id="car3" eclass="HBEFA3/PC_G_EU4" CO2="2672.41" CO="153.12" HC="0.76" NOx="1.21" PMx="0.06" fuel="1.15" electricity="0.00" noise="59.42" route="route34" type="Car" waiting="0.00" lane="Road3_1" pos="3.83" speed="0.73" angle="270.00" x="996.17" y="504.80"/>
        <vehicle id="car4" eclass="HBEFA3/PC_G_EU4" CO2="2624.72" CO="164.78" HC="0.81" NOx="1.20" PMx="0.07" fuel="1.13" electricity="0.00" noise="55.94" route="route12" type="Car" waiting="0.00" lane="Road1_1" pos="3.10" speed="0.00" angle="180.00" x="495.20" y="996.90"/>
    </timestep>
    <timestep time="6.00">
        <vehicle id="car0" eclass="HBEFA3/PC_G_EU4" CO2="3385.68" CO="105.96" HC="0.56" NOx="1.43" PMx="0.06" fuel="1.46" electricity="0.00" noise="62.22" route="route12" type="Car" waiting="0.00" lane="Road1_1" pos="19.06" speed="4.75" angle="180.00" x="495.20" y="980.94"/>
        <vehicle id="car1" eclass="HBEFA3/PC_G_EU4" CO2="3118.84" CO="112.50" HC="0.58" NOx="1.33" PMx="0.06" fuel="1.34" electricity="0.00" noise="61.37" route="route43" type="Car" waiting="0.00" lane="Road4_2" pos="14.08" speed="3.89" angle="90.00" x="14.08" y="498.40"/>
        <vehicle id="car2" eclass="HBEFA3/PC_G_EU4" CO2="2799.71" CO="129.58" HC="0.65" NOx="1.22" PMx="0.06" fuel="1.20" electricity="0.00" noise="60.02" route="route21" type="Car" waiting="0.00" lane="Road2_0" pos="8.01" speed="2.32" angle="0.00" x="508.00" y="8.01"/>
        <vehicle id="car3" eclass="HBEFA3/PC_G_EU4" CO2="2750.50" CO="141.77" HC="0.71" NOx="1.22" PMx="0.06" fuel="1.18" electricity="0.00" noise="59.93" route="route34" type="Car" waiting="0.00" lane="Road3_1" pos="5.33" speed="1.50" angle="270.00" x="994.67" y="504.80"/>
        <vehicle id="car4" eclass="HBEFA3/PC_G_EU4" CO2="2683.15" CO="152.67" HC="0.76" NOx="1.21" PMx="0.06" fuel="1.15" electricity="0.00" noise="59.60" route="route12" type="Car" waiting="0.00" lane="Road1_1" pos="3.87" speed="0.77" angle="180.00" x="495.20" y="996.13"/>
        <vehicle id="car5" eclass="HBEFA3/PC_G_EU4" CO2="2624.72" CO="164.78" HC="0.81" NOx="1.20" PMx="0.07" fuel="1.13" electricity="0.00" noise="55.94" route="route12" type="Car" waiting="0.00" lane="Road1_0" pos="3.10" speed="0.00" angle="180.00" x="492.00" y="996.90"/>
        <vehicle id="car7" eclass="HBEFA3/PC_G_EU4" CO2="2624.72" CO="164.78" HC="0.81" NOx="1.20" PMx="0.07" fuel="1.13" electricity="0.00" noise="55.94" route="route43" type="Car" waiting="0.00" lane="Road4_1" pos="3.10" speed="0.00" angle="90.00" x="3.10" y="495.20"/>
        <vehicle id="car9" eclass="HBEFA3/PC_G_EU4" CO2="2624.72" CO="164.78" HC="0.81" NOx="1.20" PMx="0.07" fuel="1.13" electricity="0.00" noise="55.94" route="route21" type="Car" waiting="0.00" lane="Road2_2" pos="3.10" speed="0.00" angle="0.00" x="501.60" y="3.10"/>
    </timestep>
    <timestep time="7.00">
        <vehicle id="car0" eclass="HBEFA3/PC_G_EU4" CO2="3596.67" CO="97.31" HC="0.53" NOx="1.51" PMx="0.06" fuel="1.55" electricity="0.00" noise="62.73" route="route12" type="Car" waiting="0.00" lane="Road1_1" pos="24.78" speed="5.72" angle="180.00" x="495.20" y="975.22"/>
        <vehicle id="car1" eclass="HBEFA3/PC_G_EU4" CO2="2815.90" CO="98.73" HC="0.51" NOx="1.17" PMx="0.05" fuel="1.21" electricity="0.00" noise="60.20" route="route43" type="Car" waiting="0.00" lane="Road4_1" pos="18.50" speed="4.42" angle="90.00" x="18.50" y="495.20"/>
        <vehicle id="car2" eclass="HBEFA3/PC_G_EU4" CO2="2840.98" CO="119.88" HC="0.61" NOx="1.22" PMx="0.06" fuel="1.22" electricity="0.00" noise="60.17" route="route21" type="Car" waiting="0.00" lane="Road2_0" pos="11.01" speed="3.01" angle="0.00" x="508.00" y="11.01"/>
        <vehicle id="car3" eclass="HBEFA3/PC_G_EU4" CO2="2881.40" CO="130.87" HC="0.66" NOx="1.26" PMx="0.06" fuel="1.24" electricity="0.00" noise="60.59" route="route34" type="Car" waiting="0.00" lane="Road3_1" pos="7.68" speed="2.35" angle="270.00" x="992.32" y="504.80"/>
        <vehicle id="car4" eclass="HBEFA3/PC_G_EU4" CO2="2739.39" CO="141.39" HC="0.71" NOx="1.22" PMx="0.06" fuel="1.18" electricity="0.00" noise="59.80" route="route12" type="Car" waiting="0.00" lane="Road1_1" pos="5.38" speed="1.51" angle="180.00" x="495.20" y="994.62"/>
        <vehicle id="car5" eclass="HBEFA3/PC_G_EU4" CO2="2655.65" CO="153.96" HC="0.76" NOx="1.20" PMx="0.06" fuel="1.14" electricity="0.00" noise="59.08" route="route12" type="Car" waiting="0.00" lane="Road1_0" pos="3.76" speed="0.66" angle="180.00" x="492.00" y="996.24"/>
        <vehicle id="car7" eclass="HBEFA3/PC_G_EU4" CO2="2636.65" CO="155.22" HC="0.77" NOx="1.19" PMx="0.06" fuel="1.13" electricity="0.00" noise="58.63" route="route43" type="Car" waiting="0.00" lane="Road4_1" pos="3.66" speed="0.56" angle="90.00" x="3.66" y="495.20"/>
        <vehicle id="car9" eclass="HBEFA3/PC_G_EU4" CO2="2704.88" CO="151.89" HC="0.75" NOx="1.22" PMx="0.06" fuel="1.16" electricity="0.00" noise="59.95" route="route21" type="Car" waiting="0.00" lane="Road2_2" pos="3.94" speed="0.84" angle="0.00" x="501.60" y="3.94"/>
    </timestep>
    <timestep time="8.00">
        <vehicle id="car0" eclass="HBEFA3/PC_G_EU4" CO2="3628.10" CO="86.92" HC="0.48" NOx="1.50" PMx="0.06" fuel="1.56" electricity="0.00" noise="62.80" route="route12" type="Car" waiting="0.00" lane="Road1_1" pos="31.39" speed="6.60" angle="180.00" x="495.20" y="968.61"/>
        <vehicle id="car1" eclass="HBEFA3/PC_G_EU4" CO2="2939.35" CO="93.19" HC="0.49" NOx="1.22" PMx="0.05" fuel="1.26" electricity="0.00" noise="60.74" route="route43" type="Car" waiting="0.00" lane="Road4_1" pos="23.51" speed="5.01" angle="90.00" x="23.51" y="495.20"/>
        <vehicle id="car2" eclass="HBEFA3/PC_G_EU4" CO2="2841.12" CO="110.67" HC="0.57" NOx="1.21" PMx="0.05" fuel="1.22" electricity="0.00" noise="60.18" route="route21" type="Car" waiting="0.00" lane="Road2_0" pos="14.64" speed="3.62" angle="0.00" x="508.00" y="14.64"/>
        <vehicle id="car3" eclass="HBEFA3/PC_G_EU4" CO2="2997.74" CO="120.22" HC="0.62" NOx="1.29" PMx="0.06" fuel="1.29" electricity="0.00" noise="60.98" route="route34" type="Car" waiting="0.00" lane="Road3_1" pos="10.87" speed="3.20" angle="270.00" x="989.13" y="504.80"/>
        <vehicle id="car4" eclass="HBEFA3/PC_G_EU4" CO2="2989.56" CO="130.80" HC="0.66" NOx="1.31" PMx="0.06" fuel="1.29" electricity="0.00" noise="61.26" route="route12" type="Car" waiting="0.00" lane="Road1_1" pos="7.87" speed="2.49" angle="180.00" x="495.20" y="992.13"/>
        <vehicle id="car5" eclass="HBEFA3/PC_G_EU4" CO2="2722.93" CO="143.10" HC="0.71" NOx="1.21" PMx="0.06" fuel="1.17" electricity="0.00" noise="59.68" route="route12" type="Car" waiting="0.00" lane="Road1_0" pos="5.14" speed="1.39" angle="180.00" x="492.00" y="994.86"/>
        <vehicle id="car6" eclass="HBEFA3/PC_G_EU4" CO2="2624.72" CO="164.78" HC="0.81" NOx="1.20" PMx="0.07" fuel="1.13" electricity="0.00" noise="55.94" route="route34" type="Car" waiting="0.00" lane="Road3_1" pos="3.10" speed="0.00" angle="270.00" x="996.90" y="504.80"/>
        <vehicle id="car7" eclass="HBEFA3/PC_G_EU4" CO2="2651.57" CO="146.08" HC="0.73" NOx="1.19" PMx="0.06" fuel="1.14" electricity="0.00" noise="58.82" route="route43" type="Car" waiting="0.00" lane="Road4_1" pos="4.78" speed="1.12" angle="90.00" x="4.78" y="495.20"/>
        <vehicle id="car9" eclass="HBEFA3/PC_G_EU4" CO2="2775.85" CO="140.01" HC="0.70" NOx="1.23" PMx="0.06" fuel="1.19" electricity="0.00" noise="60.10" route="route21" type="Car" waiting="0.00" lane="Road2_2" pos="5.58" speed="1.64" angle="0.00" x="501.60" y="5.58"/>
    </timestep>
    <timestep time="9.00">
        <vehicle id="car0" eclass="HBEFA3/PC_G_EU4" CO2="3711.86" CO="78.79" HC="0.44" NOx="1.52" PMx="0.06" fuel="1.60" electricity="0.00" noise="63.06" route="route12" type="Car" waiting="0.00" lane="Road1_1" pos="38.83" speed="7.44" angle="180.00" x="495.20" y="961.17"/>
        <vehicle id="car1" eclass="HBEFA3/PC_G_EU4" CO2="3554.11" CO="93.79" HC="0.51" NOx="1.48" PMx="0.06" fuel="1.53" electricity="0.00" noise="62.60" route="route43" type="Car" waiting="0.00" lane="Road4_1" pos="29.44" speed="5.93" angle="90.00" x="29.44" y="495.20"/>
        <vehicle id="car10" eclass="HBEFA3/PC_G_EU4" CO2="2624.72" CO="164.78" HC="0.81" NOx="1.20" PMx="0.07" fuel="1.13" electricity="0.00" noise="55.94" route="route12" type="Car" waiting="0.00" lane="Road1_1" pos="3.10" speed="0.00" angle="180.00" x="495.20" y="996.90"/>
        <vehicle id="car2" eclass="HBEFA3/PC_G_EU4" CO2="2780.90" CO="101.96" HC="0.53" NOx="1.16" PMx="0.05" fuel="1.20" electricity="0.00" noise="60.00" route="route21" type="Car" waiting="0.00" lane="Road2_0" pos="18.78" speed="4.14" angle="0.00" x="508.00" y="18.78"/>
        <vehicle id="car3" eclass="HBEFA3/PC_G_EU4" CO2="3232.57" CO="111.36" HC="0.58" NOx="1.38" PMx="0.06" fuel="1.39" electricity="0.00" noise="61.79" route="route34" type="Car" waiting="0.00" lane="Road3_1" pos="15.01" speed="4.13" angle="270.00" x="984.99" y="504.80"/>
        <vehicle id="car4" eclass="HBEFA3/PC_G_EU4" CO2="3108.21" CO="119.03" HC="0.61" NOx="1.34" PMx="0.06" fuel="1.34" electricity="0.00" noise="61.45" route="route12" type="Car" waiting="0.00" lane="Road1_1" pos="11.30" speed="3.43" angle="180.00" x="495.20" y="988.70"/>
        <vehicle id="car5" eclass="HBEFA3/PC_G_EU4" CO2="2742.57" CO="132.83" HC="0.67" NOx="1.20" PMx="0.06" fuel="1.18" electricity="0.00" noise="59.64" route="route12" type="Car" waiting="0.00" lane="Road1_0" pos="7.19" speed="2.04" angle="180.00" x="492.00" y="992.81"/>
        <vehicle id="car6" eclass="HBEFA3/PC_G_EU4" CO2="2646.18" CO="154.53" HC="0.77" NOx="1.20" PMx="0.06" fuel="1.14" electricity="0.00" noise="58.87" route="route34" type="Car" waiting="0.00" lane="Road3_1" pos="3.71" speed="0.61" angle="270.00" x="996.29" y="504.80"/>
        <vehicle id="car7" eclass="HBEFA3/PC_G_EU4" CO2="2656.07" CO="137.56" HC="0.69" NOx="1.17" PMx="0.06" fuel="1.14" electricity="0.00" noise="58.88" route="route43" type="Car" waiting="0.00" lane="Road4_1" pos="6.42" speed="1.64" angle="90.00" x="6.42" y="495.20"/>
        <vehicle id="car9" eclass="HBEFA3/PC_G_EU4" CO2="3012.40" CO="129.23" HC="0.66" NOx="1.32" PMx="0.06" fuel="1.29" electricity="0.00" noise="61.32" route="route21" type="Car" waiting="0.00" lane="Road2_2" pos="8.21" speed="2.63" angle="0.00" x="501.60" y="8.21"/>
    </timestep>
    <timestep time="10.00">
        <vehicle id="car0" eclass="HBEFA3/PC_G_EU4" CO2="3995.27" CO="74.87" HC="0.43" NOx="1.63" PMx="0.07" fuel="1.72" electricity="0.00" noise="63.73" route="route12" type="Car" waiting="0.00" lane="Road1_1" pos="47.15" speed="8.32" angle="180.00" x="495.20" y="952.85"/>
        <vehicle id="car1" eclass="HBEFA3/PC_G_EU4" CO2="3643.47" CO="84.90" HC="0.47" NOx="1.50" PMx="0.06" fuel="1.57" electricity="0.00" noise="62.85" route="route43" type="Car" waiting="0.00" lane="Road4_1" pos="36.24" speed="6.80" angle="90.00" x="36.24" y="495.20"/>
        <vehicle id="car10" eclass="HBEFA3/PC_G_EU4" CO2="2745.89" CO="150.76" HC="0.75" NOx="1.24" PMx="0.06" fuel="1.18" electricity="0.00" noise="60.51" route="route12" type="Car" waiting="0.00" lane="Road1_1" pos="4.06" speed="0.96" angle="180.00" x="495.20" y="995.94"/>
        <vehicle id="car14" eclass="HBEFA3/PC_G_EU4" CO2="2624.72" CO="164.78" HC="0.81" NOx="1.20" PMx="0.07" fuel="1.13" electricity="0.00" noise="55.94" route="route21" type="Car" waiting="0.00" lane="Road2_1" pos="3.10" speed="0.00" angle="0.00" x="504.80" y="3.10"/>
        <vehicle id="car2" eclass="HBEFA3/PC_G_EU4" CO2="3066.55" CO="98.07" HC="0.52" NOx="1.28" PMx="0.05" fuel="1.32" electricity="0.00" noise="61.13" route="route21" type="Car" waiting="0.00" lane="Road2_0" pos="23.62" speed="4.84" angle="0.00" x="508.00" y="23.62"/>
        <vehicle id="car3" eclass="HBEFA3/PC_G_EU4" CO2="3016.02" CO="97.61" HC="0.51" NOx="1.26" PMx="0.05" fuel="1.30" electricity="0.00" noise="60.96" route="route34" type="Car" waiting="0.00" lane="Road3_0" pos="19.81" speed="4.80" angle="270.00" x="980.19" y="508.00"/>
        <vehicle id="car4" eclass="HBEFA3/PC_G_EU4" CO2="2852.91" CO="105.12" HC="0.54" NOx="1.20" PMx="0.05" fuel="1.23" electricity="0.00" noise="60.27" route="route12" type="Car" waiting="0.00" lane="Road1_1" pos="15.32" speed="4.02" angle="180.00" x="495.20" y="984.68"/>
        <vehicle id="car5" eclass="HBEFA3/PC_G_EU4" CO2="2840.00" CO="123.64" HC="0.63" NOx="1.23" PMx="0.06" fuel="1.22" electricity="0.00" noise="60.19" route="route12" type="Car" waiting="0.00" lane="Road1_0" pos="9.95" speed="2.76" angle="180.00" x="492.00" y="990.05"/>
        <vehicle id="car6" eclass="HBEFA3/PC_G_EU4" CO2="2684.38" CO="144.47" HC="0.72" NOx="1.20" PMx="0.06" fuel="1.15" electricity="0.00" noise="59.25" route="route34" type="Car" waiting="0.00" lane="Road3_1" pos="4.97" speed="1.26" angle="270.00" x="995.03" y="504.80"/>
        <vehicle id="car7" eclass="HBEFA3/PC_G_EU4" CO2="2932.41" CO="129.09" HC="0.66" NOx="1.28" PMx="0.06" fuel="1.26" electricity="0.00" noise="60.85" route="route43" type="Car" waiting="0.00" lane="Road4_1" pos="8.95" speed="2.53" angle="90.00" x="8.95" y="495.20"/>
        <vehicle id="car9" eclass="HBEFA3/PC_G_EU4" CO2="3109.35" CO="117.39" HC="0.61" NOx="1.34" PMx="0.06" fuel="1.34" electricity="0.00" noise="61.42" route="route21" type="Car" waiting="0.00" lane="Road2_2" pos="11.75" speed="3.54" angle="0.00" x="501.60" y="11.75"/>
    </timestep>
    <timestep time="11.00">
        <vehicle id="car0" eclass="HBEFA3/PC_G_EU4" CO2="4300.38" CO="71.68" HC="0.43" NOx="1.75" PMx="0.07" fuel="1.85" electricity="0.00" noise="64.40" route="route12" type="Car" waiting="0.00" lane="Road1_1" pos="56.38" speed="9.23" angle="180.00" x="495.20" y="943.62"/>
        <vehicle id="car1" eclass="HBEFA3/PC_G_EU4" CO2="3087.58" CO="67.33" HC="0.38" NOx="1.23" PMx="0.05" fuel="1.33" electricity="0.00" noise="61.77" route="route43" type="Car" waiting="0.00" lane="Road4_1" pos="43.56" speed="7.32" angle="90.00" x="43.56" y="495.20"/>
        <vehicle id="car10" eclass="HBEFA3/PC_G_EU4" CO2="2851.45" CO="137.95" HC="0.69" NOx="1.26" PMx="0.06" fuel="1.23" electricity="0.00" noise="60.66" route="route12" type="Car" waiting="0.00" lane="Road1_1" pos="5.92" speed="1.86" angle="180.00" x="495.20" y="994.08"/>
        <vehicle id="car11" eclass="HBEFA3/PC_G_EU4" CO2="2624.72" CO="164.78" HC="0.81" NOx="1.20" PMx="0.07" fuel="1.13" electricity="0.00" noise="55.94" route="route12" type="Car" waiting="0.00" lane="Road1_0" pos="3.10" speed="0.00" angle="180.00" x="492.00" y="996.90"/>
        <vehicle id="car14" eclass="HBEFA3/PC_G_EU4" CO2="2654.76" CO="154.01" HC="0.76" NOx="1.20" PMx="0.06" fuel="1.14" electricity="0.00" noise="59.07" route="route21" type="Car" waiting="0.00" lane="Road2_1" pos="3.75" speed="0.65" angle="0.00" x="504.80" y="3.75"/>
        <vehicle id="car16" eclass="HBEFA3/PC_G_EU4" CO2="2624.72" CO="164.78" HC="0.81" NOx="1.20" PMx="0.07" fuel="1.13" electricity="0.00" noise="55.94" route="route21" type="Car" waiting="0.00" lane="Road2_0" pos="3.10" speed="0.00" angle="0.00" x="508.00" y="3.10"/>
        <vehicle id="car18" eclass="HBEFA3/PC_G_EU4" CO2="2624.72" CO="164.78" HC="0.81" NOx="1.20" PMx="0.07" fuel="1.13" electricity="0.00" noise="55.94" route="route12" type="Car" waiting="0.00" lane="Road1_2" pos="3.10" speed="0.00" angle="180.00" x="498.40" y="996.90"/>
        <vehicle id="car2" eclass="HBEFA3/PC_G_EU4" CO2="3526.72" CO="95.30" HC="0.52" NOx="1.47" PMx="0.06" fuel="1.52" electricity="0.00" noise="62.53" route="route21" type="Car" waiting="0.00" lane="Road2_0" pos="29.39" speed="5.77" angle="0.00" x="508.00" y="29.39"/>
        <vehicle id="car3" eclass="HBEFA3/PC_G_EU4" CO2="2896.20" CO="87.99" HC="0.47" NOx="1.19" PMx="0.05" fuel="1.24" electricity="0.00" noise="60.69" route="route34" type="Car" waiting="0.00" lane="Road3_0" pos="25.14" speed="5.33" angle="270.00" x="974.86" y="508.00"/>
        <vehicle id="car4" eclass="HBEFA3/PC_G_EU4" CO2="2816.34" CO="97.00" HC="0.51" NOx="1.17" PMx="0.05" fuel="1.21" electricity="0.00" noise="60.23" route="route12" type="Car" waiting="0.00" lane="Road1_1" pos="19.87" speed="4.55" angle="180.00" x="495.20" y="980.13"/>
        <vehicle id="car5" eclass="HBEFA3/PC_G_EU4" CO2="2910.93" CO="114.40" HC="0.59" NOx="1.24" PMx="0.06" fuel="1.25" electricity="0.00" noise="60.50" route="route12" type="Car" waiting="0.00" lane="Road1_0" pos="13.41" speed="3.47" angle="180.00" x="492.00" y="986.59"/>
        <vehicle id="car6" eclass="HBEFA3/PC_G_EU4" CO2="2745.61" CO="134.63" HC="0.68" NOx="1.21" PMx="0.06" fuel="1.18" electricity="0.00" noise="59.69" route="route34" type="Car" waiting="0.00" lane="Road3_1" pos="6.90" speed="1.93" angle="270.00" x="993.10" y="504.80"/>
        <vehicle id="car7" eclass="HBEFA3/PC_G_EU4" CO2="3020.54" CO="118.04" HC="0.61" NOx="1.30" PMx="0.06" fuel="1.30" electricity="0.00" noise="61.04" route="route43" type="Car" waiting="0.00" lane="Road4_1" pos="12.32" speed="3.37" angle="90.00" x="12.32" y="495.20"/>
        <vehicle id="car8" eclass="HBEFA3/PC_G_EU4" CO2="2624.72" CO="164.78" HC="0.81" NOx="1.20" PMx="0.07" fuel="1.13" electricity="0.00" noise="55.94" route="route43" type="Car" waiting="0.00" lane="Road4_1" pos="3.10" speed="0.00" angle="90.00" x="3.10" y="495.20"/>
        <vehicle id="car9" eclass="HBEFA3/PC_G_EU4" CO2="3056.16" CO="105.44" HC="0.55" NOx="1.29" PMx="0.06" fuel="1.31" electricity="0.00" noise="61.08" route="route21" type="Car" waiting="0.00" lane="Road2_2" pos="16.04" speed="4.30" angle="0.00" x="501.60" y="16.04"/>
    </timestep>
    <timestep time="12.00">
        <vehicle id="car0" eclass="HBEFA3/PC_G_EU4" CO2="4660.02" CO="69.94" HC="0.43" NOx="1.89" PMx="0.08" fuel="2.00" electricity="0.00" noise="65.10" route="route12" type="Car" waiting="0.00" lane="Road1_0" pos="66.57" speed="10.19" angle="180.00" x="492.00" y="933.43"/>
        <vehicle id="car1" eclass="HBEFA3/PC_G_EU4" CO2="3187.10" CO="63.31" HC="0.36" NOx="1.26" PMx="0.05" fuel="1.37" electricity="0.00" noise="62.15" route="route43" type="Car" waiting="0.00" lane="Road4_1" pos="51.41" speed="7.85" angle="90.00" x="51.41" y="495.20"/>
        <vehicle id="car10" eclass="HBEFA3/PC_G_EU4" CO2="2971.36" CO="126.31" HC="0.64" NOx="1.29" PMx="0.06" fuel="1.28" electricity="0.00" noise="60.99" route="route12" type="Car" waiting="0.00" lane="Road1_1" pos="8.68" speed="2.76" angle="180.00" x="495.20" y="991.32"/>
        <vehicle id="car11" eclass="HBEFA3/PC_G_EU4" CO2="2702.17" CO="151.98" HC="0.76" NOx="1.22" PMx="0.06" fuel="1.16" electricity="0.00" noise="59.91" route="route12" type="Car" waiting="0.00" lane="Road1_0" pos="3.93" speed="0.83" angle="180.00" x="492.00" y="996.07"/>
        <vehicle id="car14" eclass="HBEFA3/PC_G_EU4" CO2="2785.99" CO="142.28" HC="0.71" NOx="1.24" PMx="0.06" fuel="1.20" electricity="0.00" noise="60.31" route="route21" type="Car" waiting="0.00" lane="Road2_1" pos="5.27" speed="1.51" angle="0.00" x="504.80" y="5.27"/>
        <vehicle id="car16" eclass="HBEFA3/PC_G_EU4" CO2="2747.63" CO="150.72" HC="0.75" NOx="1.24" PMx="0.06" fuel="1.18" electricity="0.00" noise="60.53" route="route21" type="Car" waiting="0.00" lane="Road2_0" pos="4.06" speed="0.96" angle="0.00" x="508.00" y="4.06"/>
        <vehicle id="car18" eclass="HBEFA3/PC_G_EU4" CO2="2757.87" CO="150.50" HC="0.75" NOx="1.24" PMx="0.06" fuel="1.19" electricity="0.00" noise="60.65" route="route12" type="Car" waiting="0.00" lane="Road1_2" pos="4.09" speed="0.99" angle="180.00" x="498.40" y="995.91"/>
        <vehicle id="car2" eclass="HBEFA3/PC_G_EU4" CO2="3823.43" CO="89.26" HC="0.49" NOx="1.59" PMx="0.07" fuel="1.64" electricity="0.00" noise="63.26" route="route21" type="Car" waiting="0.00" lane="Road2_0" pos="36.13" speed="6.74" angle="0.00" x="508.00" y="36.13"/>
        <vehicle id="car3" eclass="HBEFA3/PC_G_EU4" CO2="3274.39" CO="86.39" HC="0.47" NOx="1.35" PMx="0.05" fuel="1.41" electricity="0.00" noise="61.87" route="route34" type="Car" waiting="0.00" lane="Road3_0" pos="31.20" speed="6.06" angle="270.00" x="968.80" y="508.00"/>
        <vehicle id="car4" eclass="HBEFA3/PC_G_EU4" CO2="3142.10" CO="93.98" HC="0.50" NOx="1.31" PMx="0.05" fuel="1.35" electricity="0.00" noise="61.41" route="route12" type="Car" waiting="0.00" lane="Road1_1" pos="25.13" speed="5.26" angle="180.00" x="495.20" y="974.87"/>
        <vehicle id="car5" eclass="HBEFA3/PC_G_EU4" CO2="3158.60" CO="107.34" HC="0.56" NOx="1.34" PMx="0.06" fuel="1.36" electricity="0.00" noise="61.47" route="route12" type="Car" waiting="0.00" lane="Road1_0" pos="17.72" speed="4.31" angle="180.00" x="492.00" y="982.28"/>
        <vehicle id="car6" eclass="HBEFA3/PC_G_EU4" CO2="2993.66" CO="125.47" HC="0.64" NOx="1.30" PMx="0.06" fuel="1.29" electricity="0.00" noise="61.08" route="route34" type="Car" waiting="0.00" lane="Road3_1" pos="9.75" speed="2.84" angle="270.00" x="990.25" y="504.80"/>
        <vehicle id="car7" eclass="HBEFA3/PC_G_EU4" CO2="3303.10" CO="109.88" HC="0.58" NOx="1.41" PMx="0.06" fuel="1.42" electricity="0.00" noise="62.01" route="route43" type="Car" waiting="0.00" lane="Road4_0" pos="16.67" speed="4.34" angle="90.00" x="16.67" y="492.00"/>
        <vehicle id="car8" eclass="HBEFA3/PC_G_EU4" CO2="2729.19" CO="151.18" HC="0.75" NOx="1.23" PMx="0.06" fuel="1.17" electricity="0.00" noise="60.29" route="route43" type="Car" waiting="0.00" lane="Road4_1" pos="4.01" speed="0.91" angle="90.00" x="4.01" y="495.20"/>
        <vehicle id="car9" eclass="HBEFA3/PC_G_EU4" CO2="2813.18" CO="93.45" HC="0.49" NOx="1.16" PMx="0.05" fuel="1.21" electricity="0.00" noise="60.28" route="route21" type="Car" waiting="0.00" lane="Road2_1" pos="20.84" speed="4.80" angle="0.00" x="504.80" y="20.84"/>
    </timestep>
    <timestep time="13.00">
        <vehicle id="car0" eclass="HBEFA3/PC_G_EU4" CO2="4455.00" CO="58.61" HC="0.37" NOx="1.78" PMx="0.07" fuel="1.92" electricity="0.00" noise="65.03" route="route12" type="Car" waiting="0.00" lane="Road1_0" pos="77.57" speed="11.00" angle="180.00" x="492.00" y="922.43"/>
        <vehicle id="car1" eclass="HBEFA3/PC_G_EU4" CO2="3865.73" CO="68.78" HC="0.40" NOx="1.56" PMx="0.06" fuel="1.66" electricity="0.00" noise="63.57" route="route43" type="Car" waiting="0.00" lane="Road4_0" pos="60.06" speed="8.64" angle="90.00" x="60.06" y="492.00"/>
        <vehicle id="car10" eclass="HBEFA3/PC_G_EU4" CO2="2995.60" CO="114.91" HC="0.59" NOx="1.28" PMx="0.06" fuel="1.29" electricity="0.00" noise="60.89" route="route12" type="Car" waiting="0.00" lane="Road1_1" pos="12.23" speed="3.55" angle="180.00" x="495.20" y="987.77"/>
        <vehicle id="car11" eclass="HBEFA3/PC_G_EU4" CO2="2673.57" CO="141.56" HC="0.71" NOx="1.19" PMx="0.06" fuel="1.15" electricity="0.00" noise="59.07" route="route12" type="Car" waiting="0.00" lane="Road1_0" pos="5.35" speed="1.42" angle="180.00" x="492.00" y="994.65"/>
        <vehicle id="car14" eclass="HBEFA3/PC_G_EU4" CO2="2918.92" CO="130.68" HC="0.66" NOx="1.28" PMx="0.06" fuel="1.25" electricity="0.00" noise="60.83" route="route21" type="Car" waiting="0.00" lane="Road2_1" pos="7.68" speed="2.41" angle="0.00" x="504.80" y="7.68"/>
        <vehicle id="car15" eclass="HBEFA3/PC_G_EU4" CO2="2624.72" CO="164.78" HC="0.81" NOx="1.20" PMx="0.07" fuel="1.13" electricity="0.00" noise="55.94" route="route12" type="Car" waiting="0.00" lane="Road1_1" pos="3.10" speed="0.00" angle="180.00" x="495.20" y="996.90"/>
        <vehicle id="car16" eclass="HBEFA3/PC_G_EU4" CO2="2903.49" CO="137.67" HC="0.69" NOx="1.28" PMx="0.06" fuel="1.25" electricity="0.00" noise="61.05" route="route21" type="Car" waiting="0.00" lane="Road2_0" pos="6.01" speed="1.95" angle="0.00" x="508.00" y="6.01"/>
        <vehicle id="car18" eclass="HBEFA3/PC_G_EU4" CO2="2804.42" CO="137.85" HC="0.69" NOx="1.24" PMx="0.06" fuel="1.21" electricity="0.00" noise="60.27" route="route12" type="Car" waiting="0.00" lane="Road1_2" pos="5.90" speed="1.81" angle="180.00" x="498.40" y="994.10"/>
        <vehicle id="car19" eclass="HBEFA3/PC_G_EU4" CO2="2624.72" CO="164.78" HC="0.81" NOx="1.20" PMx="0.07" fuel="1.13" electricity="0.00" noise="55.94" route="route43" type="Car" waiting="0.00" lane="Road4_0" pos="3.10" speed="0.00" angle="90.00" x="3.10" y="492.00"/>
        <vehicle id="car2" eclass="HBEFA3/PC_G_EU4" CO2="3064.10" CO="67.57" HC="0.38" NOx="1.22" PMx="0.05" fuel="1.32" electricity="0.00" noise="61.70" route="route21" type="Car" waiting="0.00" lane="Road2_0" pos="43.39" speed="7.26" angle="0.00" x="508.00" y="43.39"/>