<?xml version="1.0" encoding="UTF-8"?>

<!-- generated on 06/25/19 11:48:52 by Eclipse SUMO GUI Version 1.1.0
<configuration xmlns:xsi="http://www.w3.org/2001/XMLSchema-instance" xsi:noNamespaceSchemaLocation="http://sumo.dlr.de/xsd/sumoConfiguration.xsd">

    <input>
        <net-file value="NetFile.net.xml"/>
        <route-files value="TempLoad.rou.xml"/>
    </input>

    <output>
        <emission-output value="results/emission6.xml"/>
        <tripinfo-output value="results/tripinfo6.xml"/>
    </output>

    <time>
        <begin value="0"/>
    </time>

    <report>
        <verbose value="true"/>
        <no-step-log value="true"/>
    </report>

    <traci_server>
        <remote-port value="8873"/>
    </traci_server>

    <gui_only>
        <gui-settings-file value="nylandsvejPlainTest.set.xml"/>
    </gui_only>

</configuration>
-->

<emission-export xmlns:xsi="http://www.w3.org/2001/XMLSchema-instance" xsi:noNamespaceSchemaLocation="http://sumo.dlr.de/xsd/emission_file.xsd">
    <timestep time="0.00"/>
    <timestep time="1.00"/>
    <timestep time="2.00">
        <vehicle id="car0" eclass="HBEFA3/PC_G_EU4" CO2="2624.72" CO="164.78" HC="0.81" NOx="1.20" PMx="0.07" fuel="1.13" electricity="0.00" noise="55.94" route="route34" type="Car" waiting="0.00" lane="Road3_2" pos="3.10" speed="0.00" angle="270.00" x="996.90" y="501.60"/>
    </timestep>
    <timestep time="3.00">
        <vehicle id="car0" eclass="HBEFA3/PC_G_EU4" CO2="2635.34" CO="155.32" HC="0.77" NOx="1.19" PMx="0.06" fuel="1.13" electricity="0.00" noise="58.59" route="route34" type="Car" waiting="0.00" lane="Road3_2" pos="3.65" speed="0.55" angle="270.00" x="996.35" y="501.60"/>
        <vehicle id="car1" eclass="HBEFA3/PC_G_EU4" CO2="2624.72" CO="164.78" HC="0.81" NOx="1.20" PMx="0.07" fuel="1.13" electricity="0.00" noise="55.94" route="route12" type="Car" waiting="0.00" lane="Road1_1" pos="3.10" speed="0.00" angle="180.00" x="495.20" y="996.90"/>
    </timestep>
    <timestep time="4.00">
        <vehicle id="car0" eclass="HBEFA3/PC_G_EU4" CO2="2834.59" CO="143.00" HC="0.72" NOx="1.26" PMx="0.06" fuel="1.22" electricity="0.00" noise="60.83" route="route34" type="Car" waiting="0.00" lane="Road3_2" pos="5.19" speed="1.53" angle="270.00" x="994.81" y="501.60"/>
        <vehicle id="car1" eclass="HBEFA3/PC_G_EU4" CO2="2652.47" CO="154.14" HC="0.76" NOx="1.20" PMx="0.06" fuel="1.14" electricity="0.00" noise="59.02" route="route12" type="Car" waiting="0.00" lane="Road1_1" pos="3.74" speed="0.64" angle="180.00" x="495.20" y="996.26"/>
        <vehicle id="car2" eclass="HBEFA3/PC_G_EU4" CO2="2624.72" CO="164.78" HC="0.81" NOx="1.20" PMx="0.07" fuel="1.13" electricity="0.00" noise="55.94" route="route34" type="Car" waiting="0.00" lane="Road3_1" pos="3.10" speed="0.00" angle="270.00" x="996.90" y="504.80"/>
    </timestep>
    <timestep time="5.00">
        <vehicle id="car0" eclass="HBEFA3/PC_G_EU4" CO2="2988.50" CO="130.53" HC="0.66" NOx="1.31" PMx="0.06" fuel="1.28" electricity="0.00" noise="61.24" route="route34" type="Car" waiting="0.00" lane="Road3_2" pos="7.70" speed="2.51" angle="270.00" x="992.30" y="501.60"/>
        <vehicle id="car1" eclass="HBEFA3/PC_G_EU4" CO2="2711.87" CO="143.49" HC="0.72" NOx="1.21" PMx="0.06" fuel="1.17" electricity="0.00" noise="59.56" route="route12" type="Car" waiting="0.00" lane="Road1_1" pos="5.09" speed="1.35" angle="180.00" x="495.20" y="994.91"/>
        <vehicle id="car2" eclass="HBEFA3/PC_G_EU4" CO2="2679.62" CO="152.81" HC="0.76" NOx="1.21" PMx="0.06" fuel="1.15" electricity="0.00" noise="59.54" route="route34" type="Car" waiting="0.00" lane="Road3_1" pos="3.85" speed="0.75" angle="270.00" x="996.15" y="504.80"/>
    </timestep>
    <timestep time="6.00">
        <vehicle id="car0" eclass="HBEFA3/PC_G_EU4" CO2="2900.74" CO="117.62" HC="0.60" NOx="1.25" PMx="0.06" fuel="1.25" electricity="0.00" noise="60.47" route="route34" type="Car" waiting="0.00" lane="Road3_2" pos="10.93" speed="3.24" angle="270.00" x="989.07" y="501.60"/>
        <vehicle id="car1" eclass="HBEFA3/PC_G_EU4" CO2="2883.10" CO="132.84" HC="0.67" NOx="1.27" PMx="0.06" fuel="1.24" electricity="0.00" noise="60.67" route="route12" type="Car" waiting="0.00" lane="Road1_1" pos="7.32" speed="2.23" angle="180.00" x="495.20" y="992.68"/>
        <vehicle id="car2" eclass="HBEFA3/PC_G_EU4" CO2="2686.80" CO="142.42" HC="0.71" NOx="1.20" PMx="0.06" fuel="1.16" electricity="0.00" noise="59.24" route="route34" type="Car" waiting="0.00" lane="Road3_1" pos="5.24" speed="1.38" angle="270.00" x="994.76" y="504.80"/>
    </timestep>
    <timestep time="7.00">
        <vehicle id="car0" eclass="HBEFA3/PC_G_EU4" CO2="2912.69" CO="108.11" HC="0.56" NOx="1.23" PMx="0.05" fuel="1.25" electricity="0.00" noise="60.50" route="route34" type="Car" waiting="0.00" lane="Road3_2" pos="14.83" speed="3.90" angle="270.00" x="985.17" y="501.60"/>
        <vehicle id="car1" eclass="HBEFA3/PC_G_EU4" CO2="3125.50" CO="122.47" HC="0.63" NOx="1.35" PMx="0.06" fuel="1.34" electricity="0.00" noise="61.63" route="route12" type="Car" waiting="0.00" lane="Road1_1" pos="10.54" speed="3.22" angle="180.00" x="495.20" y="989.46"/>
        <vehicle id="car2" eclass="HBEFA3/PC_G_EU4" CO2="2724.39" CO="132.99" HC="0.67" NOx="1.20" PMx="0.06" fuel="1.17" electricity="0.00" noise="59.49" route="route34" type="Car" waiting="0.00" lane="Road3_1" pos="7.25" speed="2.01" angle="270.00" x="992.75" y="504.80"/>
    </timestep>
    <timestep time="8.00">
        <vehicle id="car0" eclass="HBEFA3/PC_G_EU4" CO2="3055.83" CO="100.94" HC="0.53" NOx="1.28" PMx="0.05" fuel="1.31" electricity="0.00" noise="61.08" route="route34" type="Car" waiting="0.00" lane="Road3_2" pos="19.45" speed="4.62" angle="270.00" x="980.55" y="501.60"/>
        <vehicle id="car1" eclass="HBEFA3/PC_G_EU4" CO2="3037.74" CO="109.32" HC="0.57" NOx="1.29" PMx="0.06" fuel="1.31" electricity="0.00" noise="61.02" route="route12" type="Car" waiting="0.00" lane="Road1_1" pos="14.54" speed="4.00" angle="180.00" x="495.20" y="985.46"/>
        <vehicle id="car2" eclass="HBEFA3/PC_G_EU4" CO2="2880.09" CO="124.17" HC="0.63" NOx="1.25" PMx="0.06" fuel="1.24" electricity="0.00" noise="60.43" route="route34" type="Car" waiting="0.00" lane="Road3_1" pos="10.02" speed="2.78" angle="270.00" x="989.98" y="504.80"/>
    </timestep>
    <timestep time="9.00">
        <vehicle id="car0" eclass="HBEFA3/PC_G_EU4" CO2="2922.36" CO="90.56" HC="0.48" NOx="1.20" PMx="0.05" fuel="1.26" electricity="0.00" noise="60.73" route="route34" type="Car" waiting="0.00" lane="Road3_1" pos="24.63" speed="5.18" angle="270.00" x="975.37" y="504.80"/>
        <vehicle id="car1" eclass="HBEFA3/PC_G_EU4" CO2="3429.41" CO="103.87" HC="0.55" NOx="1.45" PMx="0.06" fuel="1.47" electricity="0.00" noise="62.32" route="route12" type="Car" waiting="0.00" lane="Road1_0" pos="19.50" speed="4.97" angle="180.00" x="492.00" y="980.50"/>
        <vehicle id="car2" eclass="HBEFA3/PC_G_EU4" CO2="3080.51" CO="115.29" HC="0.60" NOx="1.32" PMx="0.06" fuel="1.32" electricity="0.00" noise="61.26" route="route34" type="Car" waiting="0.00" lane="Road3_1" pos="13.67" speed="3.64" angle="270.00" x="986.33" y="504.80"/>
        <vehicle id="car3" eclass="HBEFA3/PC_G_EU4" CO2="2624.72" CO="164.78" HC="0.81" NOx="1.20" PMx="0.07" fuel="1.13" electricity="0.00" noise="55.94" route="route21" type="Car" waiting="0.00" lane="Road2_1" pos="3.10" speed="0.00" angle="0.00" x="504.80" y="3.10"/>
    </timestep>
    <timestep time="10.00">
        <vehicle id="car0" eclass="HBEFA3/PC_G_EU4" CO2="3691.24" CO="93.75" HC="0.51" NOx="1.54" PMx="0.07" fuel="1.59" electricity="0.00" noise="62.95" route="route34" type="Car" waiting="0.00" lane="Road3_1" pos="30.79" speed="6.16" angle="270.00" x="969.21" y="504.80"/>
        <vehicle id="car1" eclass="HBEFA3/PC_G_EU4" CO2="3108.21" CO="88.54" HC="0.47" NOx="1.28" PMx="0.05" fuel="1.34" electricity="0.00" noise="61.36" route="route12" type="Car" waiting="0.00" lane="Road1_0" pos="25.13" speed="5.62" angle="180.00" x="492.00" y="974.87"/>
        <vehicle id="car2" eclass="HBEFA3/PC_G_EU4" CO2="2482.93" CO="99.49" HC="0.51" NOx="1.03" PMx="0.04" fuel="1.07" electricity="0.00" noise="58.70" route="route34" type="Car" waiting="0.00" lane="Road3_0" pos="17.55" speed="3.89" angle="270.00" x="982.45" y="508.00"/>
        <vehicle id="car3" eclass="HBEFA3/PC_G_EU4" CO2="2704.88" CO="151.89" HC="0.75" NOx="1.22" PMx="0.06" fuel="1.16" electricity="0.00" noise="59.95" route="route21" type="Car" waiting="0.00" lane="Road2_1" pos="3.94" speed="0.84" angle="0.00" x="504.80" y="3.94"/>
        <vehicle id="car4" eclass="HBEFA3/PC_G_EU4" CO2="2624.72" CO="164.78" HC="0.81" NOx="1.20" PMx="0.07" fuel="1.13" electricity="0.00" noise="55.94" route="route12" type="Car" waiting="0.00" lane="Road1_0" pos="3.10" speed="0.00" angle="180.00" x="492.00" y="996.90"/>
        <vehicle id="car5" eclass="HBEFA3/PC_G_EU4" CO2="2624.72" CO="164.78" HC="0.81" NOx="1.20" PMx="0.07" fuel="1.13" electricity="0.00" noise="55.94" route="route12" type="Car" waiting="0.00" lane="Road1_1" pos="3.10" speed="0.00" angle="180.00" x="495.20" y="996.90"/>
    </timestep>
    <timestep time="11.00">
        <vehicle id="car0" eclass="HBEFA3/PC_G_EU4" CO2="3556.14" CO="81.19" HC="0.45" NOx="1.46" PMx="0.06" fuel="1.53" electricity="0.00" noise="62.67" route="route34" type="Car" waiting="0.00" lane="Road3_1" pos="37.75" speed="6.96" angle="270.00" x="962.25" y="504.80"/>
        <vehicle id="car1" eclass="HBEFA3/PC_G_EU4" CO2="3073.50" CO="80.34" HC="0.44" NOx="1.25" PMx="0.05" fuel="1.32" electricity="0.00" noise="61.40" route="route12" type="Car" waiting="0.00" lane="Road1_0" pos="31.34" speed="6.21" angle="180.00" x="492.00" y="968.66"/>
        <vehicle id="car2" eclass="HBEFA3/PC_G_EU4" CO2="3009.50" CO="100.66" HC="0.53" NOx="1.26" PMx="0.05" fuel="1.29" electricity="0.00" noise="60.92" route="route34" type="Car" waiting="0.00" lane="Road3_0" pos="22.12" speed="4.57" angle="270.00" x="977.88" y="508.00"/>
        <vehicle id="car3" eclass="HBEFA3/PC_G_EU4" CO2="2651.12" CO="141.90" HC="0.71" NOx="1.18" PMx="0.06" fuel="1.14" electricity="0.00" noise="58.80" route="route21" type="Car" waiting="0.00" lane="Road2_1" pos="5.31" speed="1.37" angle="0.00" x="504.80" y="5.31"/>
        <vehicle id="car4" eclass="HBEFA3/PC_G_EU4" CO2="2635.62" CO="155.30" HC="0.77" NOx="1.19" PMx="0.06" fuel="1.13" electricity="0.00" noise="58.60" route="route12" type="Car" waiting="0.00" lane="Road1_0" pos="3.66" speed="0.56" angle="180.00" x="492.00" y="996.34"/>
        <vehicle id="car5" eclass="HBEFA3/PC_G_EU4" CO2="2707.29" CO="151.81" HC="0.75" NOx="1.22" PMx="0.06" fuel="1.16" electricity="0.00" noise="59.99" route="route12" type="Car" waiting="0.00" lane="Road1_1" pos="3.95" speed="0.85" angle="180.00" x="495.20" y="996.05"/>
    </timestep>
    <timestep time="12.00">
        <vehicle id="car0" eclass="HBEFA3/PC_G_EU4" CO2="3980.13" CO="79.35" HC="0.45" NOx="1.63" PMx="0.07" fuel="1.71" electricity="0.00" noise="63.65" route="route34" type="Car" waiting="0.00" lane="Road3_1" pos="45.63" speed="7.88" angle="270.00" x="954.37" y="504.80"/>
        <vehicle id="car1" eclass="HBEFA3/PC_G_EU4" CO2="3662.80" CO="82.17" HC="0.46" NOx="1.50" PMx="0.06" fuel="1.57" electricity="0.00" noise="62.91" route="route12" type="Car" waiting="0.00" lane="Road1_0" pos="38.40" speed="7.06" angle="180.00" x="492.00" y="961.60"/>
        <vehicle id="car2" eclass="HBEFA3/PC_G_EU4" CO2="3403.31" CO="96.88" HC="0.52" NOx="1.42" PMx="0.06" fuel="1.46" electricity="0.00" noise="62.19" route="route34" type="Car" waiting="0.00" lane="Road3_0" pos="27.57" speed="5.45" angle="270.00" x="972.43" y="508.00"/>
        <vehicle id="car3" eclass="HBEFA3/PC_G_EU4" CO2="2966.34" CO="132.53" HC="0.67" NOx="1.30" PMx="0.06" fuel="1.28" electricity="0.00" noise="61.20" route="route21" type="Car" waiting="0.00" lane="Road2_1" pos="7.66" speed="2.35" angle="0.00" x="504.80" y="7.66"/>
        <vehicle id="car4" eclass="HBEFA3/PC_G_EU4" CO2="2672.26" CO="145.58" HC="0.72" NOx="1.19" PMx="0.06" fuel="1.15" electricity="0.00" noise="59.11" route="route12" type="Car" waiting="0.00" lane="Road1_0" pos="4.83" speed="1.17" angle="180.00" x="492.00" y="995.17"/>
        <vehicle id="car5" eclass="HBEFA3/PC_G_EU4" CO2="2738.60" CO="140.33" HC="0.70" NOx="1.21" PMx="0.06" fuel="1.18" electricity="0.00" noise="59.75" route="route12" type="Car" waiting="0.00" lane="Road1_1" pos="5.52" speed="1.57" angle="180.00" x="495.20" y="994.48"/>
    </timestep>
    <timestep time="13.00">
        <vehicle id="car0" eclass="HBEFA3/PC_G_EU4" CO2="4245.00" CO="74.78" HC="0.44" NOx="1.73" PMx="0.07" fuel="1.82" electricity="0.00" noise="64.24" route="route34" type="Car" waiting="0.00" lane="Road3_1" pos="54.44" speed="8.82" angle="270.00" x="945.56" y="504.80"/>
        <vehicle id="car1" eclass="HBEFA3/PC_G_EU4" CO2="3806.77" CO="75.60" HC="0.43" NOx="1.55" PMx="0.06" fuel="1.64" electricity="0.00" noise="63.32" route="route12" type="Car" waiting="0.00" lane="Road1_0" pos="46.29" speed="7.90" angle="180.00" x="492.00" y="953.71"/>
        <vehicle id="car2" eclass="HBEFA3/PC_G_EU4" CO2="3767.33" CO="91.85" HC="0.51" NOx="1.57" PMx="0.07" fuel="1.62" electricity="0.00" noise="63.13" route="route34" type="Car" waiting="0.00" lane="Road3_0" pos="34.01" speed="6.44" angle="270.00" x="965.99" y="508.00"/>
        <vehicle id="car3" eclass="HBEFA3/PC_G_EU4" CO2="2821.21" CO="119.39" HC="0.61" NOx="1.21" PMx="0.06" fuel="1.21" electricity="0.00" noise="60.06" route="route21" type="Car" waiting="0.00" lane="Road2_1" pos="10.67" speed="3.01" angle="0.00" x="504.80" y="10.67"/>
        <vehicle id="car4" eclass="HBEFA3/PC_G_EU4" CO2="2900.22" CO="135.03" HC="0.68" NOx="1.28" PMx="0.06" fuel="1.25" electricity="0.00" noise="60.88" route="route12" type="Car" waiting="0.00" lane="Road1_0" pos="6.94" speed="2.11" angle="180.00" x="492.00" y="993.06"/>
        <vehicle id="car5" eclass="HBEFA3/PC_G_EU4" CO2="2672.29" CO="130.54" HC="0.66" NOx="1.17" PMx="0.06" fuel="1.15" electricity="0.00" noise="59.07" route="route12" type="Car" waiting="0.00" lane="Road1_1" pos="7.62" speed="2.10" angle="180.00" x="495.20" y="992.38"/>
    </timestep>
    <timestep time="14.00">
        <vehicle id="car0" eclass="HBEFA3/PC_G_EU4" CO2="3875.41" CO="60.02" HC="0.36" NOx="1.54" PMx="0.06" fuel="1.67" electricity="0.00" noise="63.82" route="route34" type="Car" waiting="0.00" lane="Road3_1" pos="63.97" speed="9.53" angle="270.00" x="936.03" y="504.80"/>
        <vehicle id="car1" eclass="HBEFA3/PC_G_EU4" CO2="4124.88" CO="72.64" HC="0.43" NOx="1.68" PMx="0.07" fuel="1.77" electricity="0.00" noise="64.03" route="route12" type="Car" waiting="0.00" lane="Road1_0" pos="55.08" speed="8.78" angle="180.00" x="492.00" y="944.92"/>
        <vehicle id="car2" eclass="HBEFA3/PC_G_EU4" CO2="3040.44" CO="70.63" HC="0.39" NOx="1.21" PMx="0.05" fuel="1.31" electricity="0.00" noise="61.55" route="route34" type="Car" waiting="0.00" lane="Road3_0" pos="40.96" speed="6.95" angle="270.00" x="959.04" y="508.00"/>
        <vehicle id="car3" eclass="HBEFA3/PC_G_EU4" CO2="3117.11" CO="112.64" HC="0.58" NOx="1.33" PMx="0.06" fuel="1.34" electricity="0.00" noise="61.37" route="route21" type="Car" waiting="0.00" lane="Road2_1" pos="14.55" speed="3.88" angle="0.00" x="504.80" y="14.55"/>
        <vehicle id="car4" eclass="HBEFA3/PC_G_EU4" CO2="3026.40" CO="123.40" HC="0.63" NOx="1.31" PMx="0.06" fuel="1.30" electricity="0.00" noise="61.19" route="route12" type="Car" waiting="0.00" lane="Road1_0" pos="9.96" speed="3.03" angle="180.00" x="492.00" y="990.04"/>
        <vehicle id="car5" eclass="HBEFA3/PC_G_EU4" CO2="2913.74" CO="123.13" HC="0.63" NOx="1.26" PMx="0.06" fuel="1.25" electricity="0.00" noise="60.60" route="route12" type="Car" waiting="0.00" lane="Road1_1" pos="10.51" speed="2.89" angle="180.00" x="495.20" y="989.49"/>
        <vehicle id="car6" eclass="HBEFA3/PC_G_EU4" CO2="2624.72" CO="164.78" HC="0.81" NOx="1.20" PMx="0.07" fuel="1.13" electricity="0.00" noise="55.94" route="route43" type="Car" waiting="0.00" lane="Road4_2" pos="3.10" speed="0.00" angle="90.00" x="3.10" y="498.40"/>
    </timestep>
    <timestep time="15.00">
        <vehicle id="car0" eclass="HBEFA3/PC_G_EU4" CO2="3854.28" CO="53.41" HC="0.33" NOx="1.51" PMx="0.06" fuel="1.66" electricity="0.00" noise="64.01" route="route34" type="Car" waiting="0.00" lane="Road3_0" pos="74.16" speed="10.18" angle="270.00" x="925.84" y="508.00"/>
        <vehicle id="car1" eclass="HBEFA3/PC_G_EU4" CO2="3677.13" CO="56.96" HC="0.34" NOx="1.45" PMx="0.05" fuel="1.58" electricity="0.00" noise="63.50" route="route12" type="Car" waiting="0.00" lane="Road1_0" pos="64.50" speed="9.43" angle="180.00" x="492.00" y="935.50"/>
        <vehicle id="car2" eclass="HBEFA3/PC_G_EU4" CO2="4059.34" CO="80.65" HC="0.46" NOx="1.67" PMx="0.07" fuel="1.74" electricity="0.00" noise="63.80" route="route34" type="Car" waiting="0.00" lane="Road3_0" pos="48.87" speed="7.91" angle="270.00" x="951.13" y="508.00"/>
        <vehicle id="car3" eclass="HBEFA3/PC_G_EU4" CO2="2986.08" CO="100.52" HC="0.53" NOx="1.25" PMx="0.05" fuel="1.28" electricity="0.00" noise="60.83" route="route21" type="Car" waiting="0.00" lane="Road2_0" pos="19.10" speed="4.54" angle="0.00" x="508.00" y="19.10"/>
        <vehicle id="car4" eclass="HBEFA3/PC_G_EU4" CO2="2932.09" CO="111.03" HC="0.57" NOx="1.25" PMx="0.06" fuel="1.26" electricity="0.00" noise="60.59" route="route12" type="Car" waiting="0.00" lane="Road1_0" pos="13.69" speed="3.73" angle="180.00" x="492.00" y="986.31"/>
        <vehicle id="car5" eclass="HBEFA3/PC_G_EU4" CO2="2807.58" CO="112.02" HC="0.57" NOx="1.20" PMx="0.05" fuel="1.21" electricity="0.00" noise="60.01" route="route12" type="Car" waiting="0.00" lane="Road1_1" pos="13.99" speed="3.48" angle="180.00" x="495.20" y="986.01"/>
        <vehicle id="car6" eclass="HBEFA3/PC_G_EU4" CO2="2718.24" CO="151.48" HC="0.75" NOx="1.22" PMx="0.06" fuel="1.17" electricity="0.00" noise="60.14" route="route43" type="Car" waiting="0.00" lane="Road4_2" pos="3.98" speed="0.88" angle="90.00" x="3.98" y="498.40"/>
    </timestep>
    <timestep time="16.00">
        <vehicle id="car0" eclass="HBEFA3/PC_G_EU4" CO2="4293.74" CO="55.79" HC="0.35" NOx="1.70" PMx="0.07" fuel="1.85" electricity="0.00" noise="64.82" route="route34" type="Car" waiting="0.00" lane="Road3_0" pos="85.10" speed="10.94" angle="270.00" x="914.90" y="508.00"/>
        <vehicle id="car1" eclass="HBEFA3/PC_G_EU4" CO2="4591.23" CO="67.15" HC="0.41" NOx="1.86" PMx="0.08" fuel="1.97" electricity="0.00" noise="65.04" route="route12" type="Car" waiting="0.00" lane="Road1_0" pos="74.85" speed="10.34" angle="180.00" x="492.00" y="925.15"/>
        <vehicle id="car2" eclass="HBEFA3/PC_G_EU4" CO2="3684.57" CO="65.29" HC="0.38" NOx="1.47" PMx="0.06" fuel="1.58" electricity="0.00" noise="63.26" route="route34" type="Car" waiting="0.00" lane="Road3_0" pos="57.49" speed="8.62" angle="270.00" x="942.51" y="508.00"/>
        <vehicle id="car3" eclass="HBEFA3/PC_G_EU4" CO2="2873.01" CO="90.92" HC="0.48" NOx="1.18" PMx="0.05" fuel="1.24" electricity="0.00" noise="60.55" route="route21" type="Car" waiting="0.00" lane="Road2_0" pos="24.17" speed="5.08" angle="0.00" x="508.00" y="24.17"/>
        <vehicle id="car4" eclass="HBEFA3/PC_G_EU4" CO2="2793.95" CO="100.69" HC="0.52" NOx="1.17" PMx="0.05" fuel="1.20" electricity="0.00" noise="60.08" route="route12" type="Car" waiting="0.00" lane="Road1_0" pos="17.94" speed="4.25" angle="180.00" x="492.00" y="982.06"/>
        <vehicle id="car5" eclass="HBEFA3/PC_G_EU4" CO2="3165.17" CO="107.19" HC="0.56" NOx="1.34" PMx="0.06" fuel="1.36" electricity="0.00" noise="61.49" route="route12" type="Car" waiting="0.00" lane="Road1_1" pos="18.32" speed="4.33" angle="180.00" x="495.20" y="981.68"/>
        <vehicle id="car6" eclass="HBEFA3/PC_G_EU4" CO2="2648.22" CO="141.35" HC="0.70" NOx="1.18" PMx="0.06" fuel="1.14" electricity="0.00" noise="58.77" route="route43" type="Car" waiting="0.00" lane="Road4_2" pos="5.38" speed="1.40" angle="90.00" x="5.38" y="498.40"/>
        <vehicle id="car7" eclass="HBEFA3/PC_G_EU4" CO2="2624.72" CO="164.78" HC="0.81" NOx="1.20" PMx="0.07" fuel="1.13" electricity="0.00" noise="55.94" route="route34" type="Car" waiting="0.00" lane="Road3_2" pos="3.10" speed="0.00" angle="270.00" x="996.90" y="501.60"/>
    </timestep>
    <timestep time="17.00">
        <vehicle id="car0" eclass="HBEFA3/PC_G_EU4" CO2="4833.43" CO="59.86" HC="0.39" NOx="1.93" PMx="0.08" fuel="2.08" electricity="0.00" noise="65.70" route="route34" type="Car" waiting="0.00" lane="Road3_0" pos="96.89" speed="11.80" angle="270.00" x="903.11" y="508.00"/>
        <vehicle id="car1" eclass="HBEFA3/PC_G_EU4" CO2="3661.84" CO="43.30" HC="0.28" NOx="1.40" PMx="0.05" fuel="1.57" electricity="0.00" noise="64.05" route="route12" type="Car" waiting="0.00" lane="Road1_0" pos="85.72" speed="10.88" angle="180.00" x="492.00" y="914.28"/>
        <vehicle id="car2" eclass="HBEFA3/PC_G_EU4" CO2="3867.79" CO="61.67" HC="0.37" NOx="1.54" PMx="0.06" fuel="1.66" electricity="0.00" noise="63.76" route="route34" type="Car" waiting="0.00" lane="Road3_0" pos="66.83" speed="9.35" angle="270.00" x="933.17" y="508.00"/>
        <vehicle id="car3" eclass="HBEFA3/PC_G_EU4" CO2="3157.05" CO="87.83" HC="0.47" NOx="1.30" PMx="0.05" fuel="1.36" electricity="0.00" noise="61.52" route="route21" type="Car" waiting="0.00" lane="Road2_0" pos="29.93" speed="5.76" angle="0.00" x="508.00" y="29.93"/>
        <vehicle id="car4" eclass="HBEFA3/PC_G_EU4" CO2="3475.67" CO="101.46" HC="0.54" NOx="1.46" PMx="0.06" fuel="1.49" electricity="0.00" noise="62.43" route="route12" type="Car" waiting="0.00" lane="Road1_0" pos="23.16" speed="5.22" angle="180.00" x="492.00" y="976.84"/>
        <vehicle id="car5" eclass="HBEFA3/PC_G_EU4" CO2="3523.37" CO="101.11" HC="0.54" NOx="1.48" PMx="0.06" fuel="1.51" electricity="0.00" noise="62.57" route="route12" type="Car" waiting="0.00" lane="Road1_1" pos="23.64" speed="5.32" angle="180.00" x="495.20" y="976.36"/>
        <vehicle id="car6" eclass="HBEFA3/PC_G_EU4" CO2="2925.30" CO="132.15" HC="0.67" NOx="1.28" PMx="0.06" fuel="1.26" electricity="0.00" noise="60.92" route="route43" type="Car" waiting="0.00" lane="Road4_2" pos="7.70" speed="2.32" angle="90.00" x="7.70" y="498.40"/>
        <vehicle id="car7" eclass="HBEFA3/PC_G_EU4" CO2="2728.41" CO="151.20" HC="0.75" NOx="1.23" PMx="0.06" fuel="1.17" electricity="0.00" noise="60.28" route="route34" type="Car" waiting="0.00" lane="Road3_2" pos="4.01" speed="0.91" angle="270.00" x="995.99" y="501.60"/>
        <vehicle id="car8" eclass="HBEFA3/PC_G_EU4" CO2="2624.72" CO="164.78" HC="0.81" NOx="1.20" PMx="0.07" fuel="1.13" electricity="0.00" noise="55.94" route="route43" type="Car" waiting="0.00" lane="Road4_1" pos="3.10" speed="0.00" angle="90.00" x="3.10" y="495.20"/>
    </timestep>
    <timestep time="18.00">
        <vehicle id="car0" eclass="HBEFA3/PC_G_EU4" CO2="4567.66" CO="49.01" HC="0.33" NOx="1.79" PMx="0.07" fuel="1.96" electricity="0.00" noise="65.66" route="route34" type="Car" waiting="0.00" lane="Road3_0" pos="109.41" speed="12.52" angle="270.00" x="890.59" y="508.00"/>
        <vehicle id="car1" eclass="HBEFA3/PC_G_EU4" CO2="4981.04" CO="62.99" HC="0.40" NOx="2.00" PMx="0.08" fuel="2.14" electricity="0.00" noise="65.87" route="route12" type="Car" waiting="0.00" lane="Road1_0" pos="97.51" speed="11.79" angle="180.00" x="492.00" y="902.49"/>
        <vehicle id="car10" eclass="HBEFA3/PC_G_EU4" CO2="2624.72" CO="164.78" HC="0.81" NOx="1.20" PMx="0.07" fuel="1.13" electricity="0.00" noise="55.94" route="route12" type="Car" waiting="0.00" lane="Road1_2" pos="3.10" speed="0.00" angle="180.00" x="498.40" y="996.90"/>
        <vehicle id="car2" eclass="HBEFA3/PC_G_EU4" CO2="4512.40" CO="66.44" HC="0.41" NOx="1.82" PMx="0.07" fuel="1.94" electricity="0.00" noise="64.91" route="route34" type="Car" waiting="0.00" lane="Road3_0" pos="77.08" speed="10.24" angle="270.00" x="922.92" y="508.00"/>
        <vehicle id="car3" eclass="HBEFA3/PC_G_EU4" CO2="3560.61" CO="85.59" HC="0.47" NOx="1.47" PMx="0.06" fuel="1.53" electricity="0.00" noise="62.64" route="route21" type="Car" waiting="0.00" lane="Road2_0" pos="36.53" speed="6.60" angle="0.00" x="508.00" y="36.53"/>
        <vehicle id="car4" eclass="HBEFA3/PC_G_EU4" CO2="3698.71" CO="93.45" HC="0.51" NOx="1.54" PMx="0.07" fuel="1.59" electricity="0.00" noise="62.97" route="route12" type="Car" waiting="0.00" lane="Road1_0" pos="29.35" speed="6.19" angle="180.00" x="492.00" y="970.65"/>
        <vehicle id="car5" eclass="HBEFA3/PC_G_EU4" CO2="3684.68" CO="92.15" HC="0.50" NOx="1.53" PMx="0.06" fuel="1.58" electricity="0.00" noise="62.93" route="route12" type="Car" waiting="0.00" lane="Road1_1" pos="29.91" speed="6.27" angle="180.00" x="495.20" y="970.09"/>
        <vehicle id="car6" eclass="HBEFA3/PC_G_EU4" CO2="2976.35" CO="120.43" HC="0.62" NOx="1.28" PMx="0.06" fuel="1.28" electricity="0.00" noise="60.88" route="route43" type="Car" waiting="0.00" lane="Road4_2" pos="10.86" speed="3.15" angle="90.00" x="10.86" y="498.40"/>
        <vehicle id="car7" eclass="HBEFA3/PC_G_EU4" CO2="2642.62" CO="141.02" HC="0.70" NOx="1.17" PMx="0.06" fuel="1.14" electricity="0.00" noise="58.70" route="route34" type="Car" waiting="0.00" lane="Road3_2" pos="5.42" speed="1.41" angle="270.00" x="994.58" y="501.60"/>
        <vehicle id="car8" eclass="HBEFA3/PC_G_EU4" CO2="2729.19" CO="151.18" HC="0.75" NOx="1.23" PMx="0.06" fuel="1.17" electricity="0.00" noise="60.29" route="route43" type="Car" waiting="0.00" lane="Road4_1" pos="4.01" speed="0.91" angle="90.00" x="4.01" y="495.20"/>
    </timestep>
    <timestep time="19.00">
        <vehicle id="car0" eclass="HBEFA3/PC_G_EU4" CO2="5021.94" CO="52.93" HC="0.36" NOx="1.98" PMx="0.08" fuel="2.16" electricity="0.00" noise="66.37" route="route34" type="Car" waiting="0.00" lane="Road3_0" pos="122.71" speed="13.30" angle="270.00" x="877.29" y="508.00"/>
        <vehicle id="car1" eclass="HBEFA3/PC_G_EU4" CO2="4878.41" CO="54.85" HC="0.36" NOx="1.93" PMx="0.08" fuel="2.10" electricity="0.00" noise="65.99" route="route12" type="Car" waiting="0.00" lane="Road1_0" pos="110.10" speed="12.59" angle="180.00" x="492.00" y="889.90"/>
        <vehicle id="car10" eclass="HBEFA3/PC_G_EU4" CO2="2747.63" CO="150.72" HC="0.75" NOx="1.24" PMx="0.06" fuel="1.18" electricity="0.00" noise="60.53" route="route12" type="Car" waiting="0.00" lane="Road1_2" pos="4.06" speed="0.96" angle="180.00" x="498.40" y="995.94"/>
        <vehicle id="car2" eclass="HBEFA3/PC_G_EU4" CO2="4118.11" CO="52.21" HC="0.33" NOx="1.62" PMx="0.06" fuel="1.77" electricity="0.00" noise="64.60" route="route34" type="Car" waiting="0.00" lane="Road3_0" pos="88.01" speed="10.93" angle="270.00" x="911.99" y="508.00"/>
        <vehicle id="car3" eclass="HBEFA3/PC_G_EU4" CO2="3755.04" CO="79.50" HC="0.45" NOx="1.54" PMx="0.06" fuel="1.61" electricity="0.00" noise="63.15" route="route21" type="Car" waiting="0.00" lane="Road2_0" pos="43.98" speed="7.45" angle="0.00" x="508.00" y="43.98"/>
        <vehicle id="car4" eclass="HBEFA3/PC_G_EU4" CO2="3446.89" CO="79.20" HC="0.44" NOx="1.40" PMx="0.06" fuel="1.48" electricity="0.00" noise="62.42" route="route12" type="Car" waiting="0.00" lane="Road1_0" pos="36.29" speed="6.94" angle="180.00" x="492.00" y="963.71"/>
        <vehicle id="car5" eclass="HBEFA3/PC_G_EU4" CO2="3296.64" CO="76.13" HC="0.42" NOx="1.33" PMx="0.05" fuel="1.42" electricity="0.00" noise="62.09" route="route12" type="Car" waiting="0.00" lane="Road1_1" pos="36.85" speed="6.93" angle="180.00" x="495.20" y="963.15"/>
        <vehicle id="car6" eclass="HBEFA3/PC_G_EU4" CO2="3171.22" CO="111.33" HC="0.58" NOx="1.35" PMx="0.06" fuel="1.36" electricity="0.00" noise="61.56" route="route43" type="Car" waiting="0.00" lane="Road4_2" pos="14.90" speed="4.05" angle="90.00" x="14.90" y="498.40"/>
        <vehicle id="car7" eclass="HBEFA3/PC_G_EU4" CO2="2854.19" CO="132.06" HC="0.67" NOx="1.25" PMx="0.06" fuel="1.23" electricity="0.00" noise="60.45" route="route34" type="Car" waiting="0.00" lane="Road3_2" pos="7.66" speed="2.24" angle="270.00" x="992.34" y="501.60"/>
        <vehicle id="car8" eclass="HBEFA3/PC_G_EU4" CO2="2700.65" CO="139.95" HC="0.70" NOx="1.20" PMx="0.06" fuel="1.16" electricity="0.00" noise="59.35" route="route43" type="Car" waiting="0.00" lane="Road4_1" pos="5.56" speed="1.55" angle="90.00" x="5.56" y="495.20"/>
    </timestep>
    <timestep time="20.00">
        <vehicle id="car0" eclass="HBEFA3/PC_G_EU4" CO2="5491.37" CO="57.33" HC="0.39" NOx="2.18" PMx="0.09" fuel="2.36" electricity="0.00" noise="67.07" route="route34" type="Car" waiting="0.00" lane="Road3_0" pos="136.87" speed="14.15" angle="270.00" x="863.13" y="508.00"/>
        <vehicle id="car1" eclass="HBEFA3/PC_G_EU4" CO2="4204.21" CO="37.08" HC="0.27" NOx="1.60" PMx="0.06" fuel="1.81" electricity="0.00" noise="65.58" route="route12" type="Car" waiting="0.00" lane="Road1_0" pos="123.26" speed="13.15" angle="180.00" x="492.00" y="876.74"/>
        <vehicle id="car10" eclass="HBEFA3/PC_G_EU4" CO2="2679.60" CO="139.56" HC="0.70" NOx="1.19" PMx="0.06" fuel="1.15" electricity="0.00" noise="59.12" route="route12" type="Car" waiting="0.00" lane="Road1_2" pos="5.61" speed="1.55" angle="180.00" x="498.40" y="994.39"/>
        <vehicle id="car11" eclass="HBEFA3/PC_G_EU4" CO2="2624.72" CO="164.78" HC="0.81" NOx="1.20" PMx="0.07" fuel="1.13" electricity="0.00" noise="55.94" route="route34" type="Car" waiting="0.00" lane="Road3_1" pos="3.10" speed="0.00" angle="270.00" x="996.90" y="504.80"/>
        <vehicle id="car2" eclass="HBEFA3/PC_G_EU4" CO2="5126.32" CO="65.25" HC="0.42" NOx="2.07" PMx="0.09" fuel="2.20" electricity="0.00" noise="66.05" route="route34" type="Car" waiting="0.00" lane="Road3_0" pos="99.89" speed="11.88" angle="270.00" x="900.11" y="508.00"/>