<?xml version="1.0" encoding="UTF-8"?>

<!-- generated on 08/07/19 11:28:42 by Eclipse SUMO GUI Version 1.1.0
<configuration xmlns:xsi="http://www.w3.org/2001/XMLSchema-instance" xsi:noNamespaceSchemaLocation="http://sumo.dlr.de/xsd/sumoConfiguration.xsd">

    <input>
        <net-file value="NetFile.net.xml"/>
        <route-files value="TrafficLoads/HighTrafficLoad.rou.xml"/>
    </input>

    <output>
        <emission-output value="results/emission8.xml"/>
        <tripinfo-output value="results/tripinfo8.xml"/>
    </output>

    <time>
        <begin value="0"/>
    </time>

    <report>
        <verbose value="true"/>
        <no-step-log value="true"/>
    </report>

    <traci_server>
        <remote-port value="8873"/>
    </traci_server>

    <gui_only>
        <gui-settings-file value="nylandsvejPlainTest.set.xml"/>
    </gui_only>

</configuration>
-->

<emission-export xmlns:xsi="http://www.w3.org/2001/XMLSchema-instance" xsi:noNamespaceSchemaLocation="http://sumo.dlr.de/xsd/emission_file.xsd">
    <timestep time="0.00"/>
    <timestep time="1.00"/>
    <timestep time="2.00">
        <vehicle id="car0" eclass="HBEFA3/PC_G_EU4" CO2="2624.72" CO="164.78" HC="0.81" NOx="1.20" PMx="0.07" fuel="1.13" electricity="0.00" noise="55.94" route="route34" type="Car" waiting="0.00" lane="Road3_0" pos="3.10" speed="0.00" angle="270.00" x="996.90" y="501.60"/>
    </timestep>
    <timestep time="3.00">
        <vehicle id="car0" eclass="HBEFA3/PC_G_EU4" CO2="2635.34" CO="155.32" HC="0.77" NOx="1.19" PMx="0.06" fuel="1.13" electricity="0.00" noise="58.59" route="route34" type="Car" waiting="0.00" lane="Road3_0" pos="3.65" speed="0.55" angle="270.00" x="996.35" y="501.60"/>
    </timestep>
    <timestep time="4.00">
        <vehicle id="car0" eclass="HBEFA3/PC_G_EU4" CO2="2681.59" CO="145.37" HC="0.72" NOx="1.20" PMx="0.06" fuel="1.15" electricity="0.00" noise="59.23" route="route34" type="Car" waiting="0.00" lane="Road3_0" pos="4.85" speed="1.20" angle="270.00" x="995.15" y="501.60"/>
        <vehicle id="car1" eclass="HBEFA3/PC_G_EU4" CO2="2624.72" CO="164.78" HC="0.81" NOx="1.20" PMx="0.07" fuel="1.13" electricity="0.00" noise="55.94" route="route21" type="Car" waiting="0.00" lane="Road2_0" pos="3.10" speed="0.00" angle="0.00" x="501.60" y="3.10"/>
    </timestep>
    <timestep time="5.00">
        <vehicle id="car0" eclass="HBEFA3/PC_G_EU4" CO2="2933.79" CO="134.66" HC="0.68" NOx="1.29" PMx="0.06" fuel="1.26" electricity="0.00" noise="61.09" route="route34" type="Car" waiting="0.00" lane="Road3_0" pos="7.03" speed="2.18" angle="270.00" x="992.97" y="501.60"/>
        <vehicle id="car1" eclass="HBEFA3/PC_G_EU4" CO2="2679.62" CO="152.81" HC="0.76" NOx="1.21" PMx="0.06" fuel="1.15" electricity="0.00" noise="59.54" route="route21" type="Car" waiting="0.00" lane="Road2_0" pos="3.85" speed="0.75" angle="0.00" x="501.60" y="3.85"/>
        <vehicle id="car3" eclass="HBEFA3/PC_G_EU4" CO2="2624.72" CO="164.78" HC="0.81" NOx="1.20" PMx="0.07" fuel="1.13" electricity="0.00" noise="55.94" route="route43" type="Car" waiting="0.00" lane="Road4_0" pos="3.10" speed="0.00" angle="90.00" x="3.10" y="498.40"/>
    </timestep>
    <timestep time="6.00">
        <vehicle id="car0" eclass="HBEFA3/PC_G_EU4" CO2="2845.48" CO="121.87" HC="0.62" NOx="1.23" PMx="0.06" fuel="1.22" electricity="0.00" noise="60.21" route="route34" type="Car" waiting="0.00" lane="Road3_0" pos="9.91" speed="2.88" angle="270.00" x="990.09" y="501.60"/>
        <vehicle id="car1" eclass="HBEFA3/PC_G_EU4" CO2="2865.25" CO="140.36" HC="0.71" NOx="1.27" PMx="0.06" fuel="1.23" electricity="0.00" noise="60.91" route="route21" type="Car" waiting="0.00" lane="Road2_0" pos="5.59" speed="1.73" angle="0.00" x="501.60" y="5.59"/>
        <vehicle id="car3" eclass="HBEFA3/PC_G_EU4" CO2="2649.21" CO="154.34" HC="0.76" NOx="1.20" PMx="0.06" fuel="1.14" electricity="0.00" noise="58.94" route="route43" type="Car" waiting="0.00" lane="Road4_0" pos="3.73" speed="0.63" angle="90.00" x="3.73" y="498.40"/>
        <vehicle id="car4" eclass="HBEFA3/PC_G_EU4" CO2="2624.72" CO="164.78" HC="0.81" NOx="1.20" PMx="0.07" fuel="1.13" electricity="0.00" noise="55.94" route="route34" type="Car" waiting="0.00" lane="Road3_0" pos="3.10" speed="0.00" angle="270.00" x="996.90" y="501.60"/>
    </timestep>
</emission-export>
