<?xml version="1.0" encoding="UTF-8"?>

<!-- generated on 06/25/19 13:20:20 by Eclipse SUMO GUI Version 1.1.0
<configuration xmlns:xsi="http://www.w3.org/2001/XMLSchema-instance" xsi:noNamespaceSchemaLocation="http://sumo.dlr.de/xsd/sumoConfiguration.xsd">

    <input>
        <net-file value="NetFile.net.xml"/>
        <route-files value="TempLoad.rou.xml"/>
    </input>

    <output>
        <emission-output value="results/emission1.xml"/>
        <tripinfo-output value="results/tripinfo1.xml"/>
    </output>

    <time>
        <begin value="0"/>
    </time>

    <report>
        <verbose value="true"/>
        <no-step-log value="true"/>
    </report>

    <traci_server>
        <remote-port value="8873"/>
    </traci_server>

    <gui_only>
        <gui-settings-file value="nylandsvejPlainTest.set.xml"/>
    </gui_only>

</configuration>
-->

<emission-export xmlns:xsi="http://www.w3.org/2001/XMLSchema-instance" xsi:noNamespaceSchemaLocation="http://sumo.dlr.de/xsd/emission_file.xsd">
    <timestep time="0.00">
        <vehicle id="car0" eclass="HBEFA3/PC_G_EU4" CO2="2558.32" CO="0.00" HC="0.00" NOx="0.76" PMx="0.02" fuel="1.10" electricity="0.00" noise="66.01" route="route43" type="Car" waiting="0.00" lane="Road4_0" pos="3.10" speed="16.00" angle="90.00" x="3.10" y="492.00"/>
        <vehicle id="car1" eclass="HBEFA3/PC_G_EU4" CO2="2558.32" CO="0.00" HC="0.00" NOx="0.76" PMx="0.02" fuel="1.10" electricity="0.00" noise="66.01" route="route21" type="Car" waiting="0.00" lane="Road2_1" pos="3.10" speed="16.00" angle="0.00" x="504.80" y="3.10"/>
    </timestep>
    <timestep time="1.00">
        <vehicle id="car0" eclass="HBEFA3/PC_G_EU4" CO2="0.00" CO="0.00" HC="0.00" NOx="0.00" PMx="0.00" fuel="0.00" electricity="0.00" noise="65.95" route="route43" type="Car" waiting="0.00" lane="Road4_0" pos="19.08" speed="15.98" angle="90.00" x="19.08" y="492.00"/>
        <vehicle id="car1" eclass="HBEFA3/PC_G_EU4" CO2="0.00" CO="0.00" HC="0.00" NOx="0.00" PMx="0.00" fuel="0.00" electricity="0.00" noise="65.36" route="route21" type="Car" waiting="0.00" lane="Road2_1" pos="18.85" speed="15.75" angle="0.00" x="504.80" y="18.85"/>
    </timestep>
    <timestep time="2.00">
        <vehicle id="car0" eclass="HBEFA3/PC_G_EU4" CO2="0.00" CO="0.00" HC="0.00" NOx="0.00" PMx="0.00" fuel="0.00" electricity="0.00" noise="65.28" route="route43" type="Car" waiting="0.00" lane="Road4_0" pos="34.78" speed="15.71" angle="90.00" x="34.78" y="492.00"/>
        <vehicle id="car1" eclass="HBEFA3/PC_G_EU4" CO2="3488.29" CO="6.80" HC="0.11" NOx="1.19" PMx="0.04" fuel="1.50" electricity="0.00" noise="66.49" route="route21" type="Car" waiting="0.00" lane="Road2_1" pos="34.83" speed="15.98" angle="0.00" x="504.80" y="34.83"/>
        <vehicle id="car2" eclass="HBEFA3/PC_G_EU4" CO2="2558.32" CO="0.00" HC="0.00" NOx="0.76" PMx="0.02" fuel="1.10" electricity="0.00" noise="66.01" route="route34" type="Car" waiting="0.00" lane="Road3_1" pos="3.10" speed="16.00" angle="270.00" x="996.90" y="504.80"/>
    </timestep>
    <timestep time="3.00">
        <vehicle id="car0" eclass="HBEFA3/PC_G_EU4" CO2="3252.02" CO="2.38" HC="0.09" NOx="1.09" PMx="0.03" fuel="1.40" electricity="0.00" noise="66.30" route="route43" type="Car" waiting="0.00" lane="Road4_0" pos="50.66" speed="15.88" angle="90.00" x="50.66" y="492.00"/>
        <vehicle id="car1" eclass="HBEFA3/PC_G_EU4" CO2="0.00" CO="0.00" HC="0.00" NOx="0.00" PMx="0.00" fuel="0.00" electricity="0.00" noise="65.34" route="route21" type="Car" waiting="0.00" lane="Road2_1" pos="50.56" speed="15.73" angle="0.00" x="504.80" y="50.56"/>
        <vehicle id="car2" eclass="HBEFA3/PC_G_EU4" CO2="0.00" CO="0.00" HC="0.00" NOx="0.00" PMx="0.00" fuel="0.00" electricity="0.00" noise="65.05" route="route34" type="Car" waiting="0.00" lane="Road3_1" pos="18.73" speed="15.63" angle="270.00" x="981.27" y="504.80"/>
        <vehicle id="car3" eclass="HBEFA3/PC_G_EU4" CO2="2558.32" CO="0.00" HC="0.00" NOx="0.76" PMx="0.02" fuel="1.10" electricity="0.00" noise="66.01" route="route43" type="Car" waiting="0.00" lane="Road4_2" pos="3.10" speed="16.00" angle="90.00" x="3.10" y="498.40"/>
        <vehicle id="car4" eclass="HBEFA3/PC_G_EU4" CO2="2558.32" CO="0.00" HC="0.00" NOx="0.76" PMx="0.02" fuel="1.10" electricity="0.00" noise="66.01" route="route12" type="Car" waiting="0.00" lane="Road1_2" pos="3.10" speed="16.00" angle="180.00" x="498.40" y="996.90"/>
    </timestep>
    <timestep time="4.00">
        <vehicle id="car0" eclass="HBEFA3/PC_G_EU4" CO2="2944.40" CO="0.00" HC="0.05" NOx="0.94" PMx="0.03" fuel="1.27" electricity="0.00" noise="66.19" route="route43" type="Car" waiting="0.00" lane="Road4_0" pos="66.63" speed="15.97" angle="90.00" x="66.63" y="492.00"/>
        <vehicle id="car1" eclass="HBEFA3/PC_G_EU4" CO2="0.00" CO="0.00" HC="0.00" NOx="0.00" PMx="0.00" fuel="0.00" electricity="0.00" noise="65.38" route="route21" type="Car" waiting="0.00" lane="Road2_1" pos="66.12" speed="15.56" angle="0.00" x="504.80" y="66.12"/>
        <vehicle id="car2" eclass="HBEFA3/PC_G_EU4" CO2="3532.48" CO="8.19" HC="0.12" NOx="1.22" PMx="0.04" fuel="1.52" electricity="0.00" noise="66.45" route="route34" type="Car" waiting="0.00" lane="Road3_1" pos="34.60" speed="15.87" angle="270.00" x="965.40" y="504.80"/>
        <vehicle id="car3" eclass="HBEFA3/PC_G_EU4" CO2="0.00" CO="0.00" HC="0.00" NOx="0.00" PMx="0.00" fuel="0.00" electricity="0.00" noise="65.41" route="route43" type="Car" waiting="0.00" lane="Road4_2" pos="18.87" speed="15.77" angle="90.00" x="18.87" y="498.40"/>
        <vehicle id="car4" eclass="HBEFA3/PC_G_EU4" CO2="0.00" CO="0.00" HC="0.00" NOx="0.00" PMx="0.00" fuel="0.00" electricity="0.00" noise="65.27" route="route12" type="Car" waiting="0.00" lane="Road1_2" pos="18.82" speed="15.72" angle="180.00" x="498.40" y="981.18"/>
        <vehicle id="car6" eclass="HBEFA3/PC_G_EU4" CO2="2558.32" CO="0.00" HC="0.00" NOx="0.76" PMx="0.02" fuel="1.10" electricity="0.00" noise="66.01" route="route21" type="Car" waiting="0.00" lane="Road2_1" pos="3.10" speed="16.00" angle="0.00" x="504.80" y="3.10"/>
        <vehicle id="car7" eclass="HBEFA3/PC_G_EU4" CO2="2558.32" CO="0.00" HC="0.00" NOx="0.76" PMx="0.02" fuel="1.10" electricity="0.00" noise="66.01" route="route21" type="Car" waiting="0.00" lane="Road2_2" pos="3.10" speed="16.00" angle="0.00" x="501.60" y="3.10"/>
    </timestep>
    <timestep time="5.00">
        <vehicle id="car0" eclass="HBEFA3/PC_G_EU4" CO2="0.00" CO="0.00" HC="0.00" NOx="0.00" PMx="0.00" fuel="0.00" electricity="0.00" noise="64.87" route="route43" type="Car" waiting="0.00" lane="Road4_0" pos="82.16" speed="15.53" angle="90.00" x="82.16" y="492.00"/>
        <vehicle id="car1" eclass="HBEFA3/PC_G_EU4" CO2="2613.77" CO="0.00" HC="0.02" NOx="0.79" PMx="0.02" fuel="1.12" electricity="0.00" noise="65.79" route="route21" type="Car" waiting="0.00" lane="Road2_1" pos="81.71" speed="15.59" angle="0.00" x="504.80" y="81.71"/>
        <vehicle id="car10" eclass="HBEFA3/PC_G_EU4" CO2="2558.32" CO="0.00" HC="0.00" NOx="0.76" PMx="0.02" fuel="1.10" electricity="0.00" noise="66.01" route="route12" type="Car" waiting="0.00" lane="Road1_2" pos="3.10" speed="16.00" angle="180.00" x="498.40" y="996.90"/>
        <vehicle id="car2" eclass="HBEFA3/PC_G_EU4" CO2="0.00" CO="0.00" HC="0.00" NOx="0.00" PMx="0.00" fuel="0.00" electricity="0.00" noise="65.43" route="route34" type="Car" waiting="0.00" lane="Road3_1" pos="50.28" speed="15.68" angle="270.00" x="949.72" y="504.80"/>
        <vehicle id="car3" eclass="HBEFA3/PC_G_EU4" CO2="0.00" CO="0.00" HC="0.00" NOx="0.00" PMx="0.00" fuel="0.00" electricity="0.00" noise="65.78" route="route43" type="Car" waiting="0.00" lane="Road4_2" pos="34.62" speed="15.74" angle="90.00" x="34.62" y="498.40"/>
        <vehicle id="car4" eclass="HBEFA3/PC_G_EU4" CO2="3075.22" CO="0.00" HC="0.07" NOx="1.00" PMx="0.03" fuel="1.32" electricity="0.00" noise="66.19" route="route12" type="Car" waiting="0.00" lane="Road1_2" pos="34.66" speed="15.85" angle="180.00" x="498.40" y="965.34"/>
        <vehicle id="car5" eclass="HBEFA3/PC_G_EU4" CO2="2558.32" CO="0.00" HC="0.00" NOx="0.76" PMx="0.02" fuel="1.10" electricity="0.00" noise="66.01" route="route43" type="Car" waiting="0.00" lane="Road4_2" pos="3.10" speed="16.00" angle="90.00" x="3.10" y="498.40"/>
        <vehicle id="car6" eclass="HBEFA3/PC_G_EU4" CO2="0.00" CO="0.00" HC="0.00" NOx="0.00" PMx="0.00" fuel="0.00" electricity="0.00" noise="64.88" route="route21" type="Car" waiting="0.00" lane="Road2_1" pos="18.66" speed="15.56" angle="0.00" x="504.80" y="18.66"/>
        <vehicle id="car7" eclass="HBEFA3/PC_G_EU4" CO2="0.00" CO="0.00" HC="0.00" NOx="0.00" PMx="0.00" fuel="0.00" electricity="0.00" noise="65.95" route="route21" type="Car" waiting="0.00" lane="Road2_2" pos="19.08" speed="15.98" angle="0.00" x="501.60" y="19.08"/>
        <vehicle id="car8" eclass="HBEFA3/PC_G_EU4" CO2="2558.32" CO="0.00" HC="0.00" NOx="0.76" PMx="0.02" fuel="1.10" electricity="0.00" noise="66.01" route="route12" type="Car" waiting="0.00" lane="Road1_0" pos="3.10" speed="16.00" angle="180.00" x="492.00" y="996.90"/>
        <vehicle id="car9" eclass="HBEFA3/PC_G_EU4" CO2="2558.32" CO="0.00" HC="0.00" NOx="0.76" PMx="0.02" fuel="1.10" electricity="0.00" noise="66.01" route="route34" type="Car" waiting="0.00" lane="Road3_1" pos="3.10" speed="16.00" angle="270.00" x="996.90" y="504.80"/>
    </timestep>
    <timestep time="6.00">
        <vehicle id="car0" eclass="HBEFA3/PC_G_EU4" CO2="0.00" CO="0.00" HC="0.00" NOx="0.00" PMx="0.00" fuel="0.00" electricity="0.00" noise="65.66" route="route43" type="Car" waiting="0.00" lane="Road4_0" pos="97.68" speed="15.52" angle="90.00" x="97.68" y="492.00"/>
        <vehicle id="car1" eclass="HBEFA3/PC_G_EU4" CO2="3701.06" CO="11.66" HC="0.14" NOx="1.30" PMx="0.05" fuel="1.59" electricity="0.00" noise="66.55" route="route21" type="Car" waiting="0.00" lane="Road2_1" pos="97.58" speed="15.87" angle="0.00" x="504.80" y="97.58"/>
        <vehicle id="car10" eclass="HBEFA3/PC_G_EU4" CO2="0.00" CO="0.00" HC="0.00" NOx="0.00" PMx="0.00" fuel="0.00" electricity="0.00" noise="65.84" route="route12" type="Car" waiting="0.00" lane="Road1_2" pos="19.04" speed="15.94" angle="180.00" x="498.40" y="980.96"/>
        <vehicle id="car2" eclass="HBEFA3/PC_G_EU4" CO2="3606.13" CO="9.40" HC="0.13" NOx="1.25" PMx="0.04" fuel="1.55" electricity="0.00" noise="66.53" route="route34" type="Car" waiting="0.00" lane="Road3_1" pos="66.22" speed="15.94" angle="270.00" x="933.78" y="504.80"/>
        <vehicle id="car3" eclass="HBEFA3/PC_G_EU4" CO2="3563.09" CO="8.31" HC="0.12" NOx="1.23" PMx="0.04" fuel="1.53" electricity="0.00" noise="66.53" route="route43" type="Car" waiting="0.00" lane="Road4_2" pos="50.60" speed="15.99" angle="90.00" x="50.60" y="498.40"/>
        <vehicle id="car4" eclass="HBEFA3/PC_G_EU4" CO2="0.00" CO="0.00" HC="0.00" NOx="0.00" PMx="0.00" fuel="0.00" electricity="0.00" noise="65.87" route="route12" type="Car" waiting="0.00" lane="Road1_2" pos="50.50" speed="15.83" angle="180.00" x="498.40" y="949.50"/>
        <vehicle id="car5" eclass="HBEFA3/PC_G_EU4" CO2="0.00" CO="0.00" HC="0.00" NOx="0.00" PMx="0.00" fuel="0.00" electricity="0.00" noise="65.12" route="route43" type="Car" waiting="0.00" lane="Road4_2" pos="18.76" speed="15.66" angle="90.00" x="18.76" y="498.40"/>
        <vehicle id="car6" eclass="HBEFA3/PC_G_EU4" CO2="3920.90" CO="16.10" HC="0.16" NOx="1.40" PMx="0.05" fuel="1.69" electricity="0.00" noise="66.69" route="route21" type="Car" waiting="0.00" lane="Road2_1" pos="34.54" speed="15.89" angle="0.00" x="504.80" y="34.54"/>
        <vehicle id="car7" eclass="HBEFA3/PC_G_EU4" CO2="0.00" CO="0.00" HC="0.00" NOx="0.00" PMx="0.00" fuel="0.00" electricity="0.00" noise="64.84" route="route21" type="Car" waiting="0.00" lane="Road2_2" pos="34.60" speed="15.52" angle="0.00" x="501.60" y="34.60"/>
        <vehicle id="car8" eclass="HBEFA3/PC_G_EU4" CO2="0.00" CO="0.00" HC="0.00" NOx="0.00" PMx="0.00" fuel="0.00" electricity="0.00" noise="65.80" route="route12" type="Car" waiting="0.00" lane="Road1_0" pos="19.02" speed="15.92" angle="180.00" x="492.00" y="980.98"/>
        <vehicle id="car9" eclass="HBEFA3/PC_G_EU4" CO2="0.00" CO="0.00" HC="0.00" NOx="0.00" PMx="0.00" fuel="0.00" electricity="0.00" noise="65.47" route="route34" type="Car" waiting="0.00" lane="Road3_1" pos="18.89" speed="15.79" angle="270.00" x="981.11" y="504.80"/>
    </timestep>
    <timestep time="7.00">
        <vehicle id="car0" eclass="HBEFA3/PC_G_EU4" CO2="3074.12" CO="0.00" HC="0.07" NOx="1.01" PMx="0.03" fuel="1.32" electricity="0.00" noise="66.08" route="route43" type="Car" waiting="0.00" lane="Road4_0" pos="113.33" speed="15.65" angle="90.00" x="113.33" y="492.00"/>
        <vehicle id="car1" eclass="HBEFA3/PC_G_EU4" CO2="0.00" CO="0.00" HC="0.00" NOx="0.00" PMx="0.00" fuel="0.00" electricity="0.00" noise="65.05" route="route21" type="Car" waiting="0.00" lane="Road2_1" pos="113.11" speed="15.53" angle="0.00" x="504.80" y="113.11"/>
        <vehicle id="car10" eclass="HBEFA3/PC_G_EU4" CO2="0.00" CO="0.00" HC="0.00" NOx="0.00" PMx="0.00" fuel="0.00" electricity="0.00" noise="65.26" route="route12" type="Car" waiting="0.00" lane="Road1_2" pos="34.70" speed="15.67" angle="180.00" x="498.40" y="965.30"/>
        <vehicle id="car11" eclass="HBEFA3/PC_G_EU4" CO2="2558.32" CO="0.00" HC="0.00" NOx="0.76" PMx="0.02" fuel="1.10" electricity="0.00" noise="66.01" route="route12" type="Car" waiting="0.00" lane="Road1_1" pos="3.10" speed="16.00" angle="180.00" x="495.20" y="996.90"/>
        <vehicle id="car2" eclass="HBEFA3/PC_G_EU4" CO2="0.00" CO="0.00" HC="0.00" NOx="0.00" PMx="0.00" fuel="0.00" electricity="0.00" noise="65.20" route="route34" type="Car" waiting="0.00" lane="Road3_1" pos="81.86" speed="15.64" angle="270.00" x="918.14" y="504.80"/>
        <vehicle id="car3" eclass="HBEFA3/PC_G_EU4" CO2="0.00" CO="0.00" HC="0.00" NOx="0.00" PMx="0.00" fuel="0.00" electricity="0.00" noise="65.72" route="route43" type="Car" waiting="0.00" lane="Road4_2" pos="66.48" speed="15.88" angle="90.00" x="66.48" y="498.40"/>
        <vehicle id="car4" eclass="HBEFA3/PC_G_EU4" CO2="3056.77" CO="0.00" HC="0.06" NOx="0.99" PMx="0.03" fuel="1.31" electricity="0.00" noise="66.24" route="route12" type="Car" waiting="0.00" lane="Road1_2" pos="66.45" speed="15.96" angle="180.00" x="498.40" y="933.55"/>
        <vehicle id="car5" eclass="HBEFA3/PC_G_EU4" CO2="0.00" CO="0.00" HC="0.00" NOx="0.00" PMx="0.00" fuel="0.00" electricity="0.00" noise="65.61" route="route43" type="Car" waiting="0.00" lane="Road4_2" pos="34.35" speed="15.59" angle="90.00" x="34.35" y="498.40"/>
        <vehicle id="car6" eclass="HBEFA3/PC_G_EU4" CO2="0.00" CO="0.00" HC="0.00" NOx="0.00" PMx="0.00" fuel="0.00" electricity="0.00" noise="64.98" route="route21" type="Car" waiting="0.00" lane="Road2_1" pos="50.06" speed="15.52" angle="0.00" x="504.80" y="50.06"/>
        <vehicle id="car7" eclass="HBEFA3/PC_G_EU4" CO2="3312.73" CO="4.36" HC="0.10" NOx="1.12" PMx="0.04" fuel="1.42" electricity="0.00" noise="66.24" route="route21" type="Car" waiting="0.00" lane="Road2_2" pos="50.31" speed="15.71" angle="0.00" x="501.60" y="50.31"/>
        <vehicle id="car8" eclass="HBEFA3/PC_G_EU4" CO2="0.00" CO="0.00" HC="0.00" NOx="0.00" PMx="0.00" fuel="0.00" electricity="0.00" noise="65.95" route="route12" type="Car" waiting="0.00" lane="Road1_0" pos="34.94" speed="15.92" angle="180.00" x="492.00" y="965.06"/>
        <vehicle id="car9" eclass="HBEFA3/PC_G_EU4" CO2="0.00" CO="0.00" HC="0.00" NOx="0.00" PMx="0.00" fuel="0.00" electricity="0.00" noise="65.62" route="route34" type="Car" waiting="0.00" lane="Road3_1" pos="34.60" speed="15.70" angle="270.00" x="965.40" y="504.80"/>
    </timestep>
    <timestep time="8.00">
        <vehicle id="car0" eclass="HBEFA3/PC_G_EU4" CO2="3394.80" CO="5.39" HC="0.10" NOx="1.15" PMx="0.04" fuel="1.46" electricity="0.00" noise="66.37" route="route43" type="Car" waiting="0.00" lane="Road4_0" pos="129.19" speed="15.86" angle="90.00" x="129.19" y="492.00"/>
        <vehicle id="car1" eclass="HBEFA3/PC_G_EU4" CO2="3321.57" CO="4.48" HC="0.10" NOx="1.12" PMx="0.04" fuel="1.43" electricity="0.00" noise="66.26" route="route21" type="Car" waiting="0.00" lane="Road2_1" pos="128.84" speed="15.73" angle="0.00" x="504.80" y="128.84"/>
        <vehicle id="car10" eclass="HBEFA3/PC_G_EU4" CO2="2574.29" CO="0.00" HC="0.01" NOx="0.77" PMx="0.02" fuel="1.11" electricity="0.00" noise="65.82" route="route12" type="Car" waiting="0.00" lane="Road1_2" pos="50.38" speed="15.68" angle="180.00" x="498.40" y="949.62"/>
        <vehicle id="car11" eclass="HBEFA3/PC_G_EU4" CO2="0.00" CO="0.00" HC="0.00" NOx="0.00" PMx="0.00" fuel="0.00" electricity="0.00" noise="65.60" route="route12" type="Car" waiting="0.00" lane="Road1_1" pos="18.95" speed="15.85" angle="180.00" x="495.20" y="981.05"/>
        <vehicle id="car12" eclass="HBEFA3/PC_G_EU4" CO2="2558.32" CO="0.00" HC="0.00" NOx="0.76" PMx="0.02" fuel="1.10" electricity="0.00" noise="66.01" route="route43" type="Car" waiting="0.00" lane="Road4_0" pos="3.10" speed="16.00" angle="90.00" x="3.10" y="492.00"/>
        <vehicle id="car2" eclass="HBEFA3/PC_G_EU4" CO2="3719.13" CO="11.79" HC="0.14" NOx="1.30" PMx="0.05" fuel="1.60" electricity="0.00" noise="66.59" route="route34" type="Car" waiting="0.00" lane="Road3_1" pos="97.78" speed="15.92" angle="270.00" x="902.22" y="504.80"/>
        <vehicle id="car3" eclass="HBEFA3/PC_G_EU4" CO2="2699.56" CO="0.00" HC="0.02" NOx="0.82" PMx="0.02" fuel="1.16" electricity="0.00" noise="66.03" route="route43" type="Car" waiting="0.00" lane="Road4_2" pos="82.40" speed="15.92" angle="90.00" x="82.40" y="498.40"/>
        <vehicle id="car4" eclass="HBEFA3/PC_G_EU4" CO2="0.00" CO="0.00" HC="0.00" NOx="0.00" PMx="0.00" fuel="0.00" electricity="0.00" noise="65.85" route="route12" type="Car" waiting="0.00" lane="Road1_2" pos="82.36" speed="15.91" angle="180.00" x="498.40" y="917.64"/>
        <vehicle id="car5" eclass="HBEFA3/PC_G_EU4" CO2="0.00" CO="0.00" HC="0.00" NOx="0.00" PMx="0.00" fuel="0.00" electricity="0.00" noise="65.54" route="route43" type="Car" waiting="0.00" lane="Road4_2" pos="49.87" speed="15.52" angle="90.00" x="49.87" y="498.40"/>
        <vehicle id="car6" eclass="HBEFA3/PC_G_EU4" CO2="2568.11" CO="0.00" HC="0.01" NOx="0.77" PMx="0.02" fuel="1.10" electricity="0.00" noise="65.73" route="route21" type="Car" waiting="0.00" lane="Road2_1" pos="65.60" speed="15.54" angle="0.00" x="504.80" y="65.60"/>
        <vehicle id="car7" eclass="HBEFA3/PC_G_EU4" CO2="0.00" CO="0.00" HC="0.00" NOx="0.00" PMx="0.00" fuel="0.00" electricity="0.00" noise="65.81" route="route21" type="Car" waiting="0.00" lane="Road2_2" pos="66.02" speed="15.71" angle="0.00" x="501.60" y="66.02"/>
        <vehicle id="car8" eclass="HBEFA3/PC_G_EU4" CO2="0.00" CO="0.00" HC="0.00" NOx="0.00" PMx="0.00" fuel="0.00" electricity="0.00" noise="65.52" route="route12" type="Car" waiting="0.00" lane="Road1_0" pos="50.69" speed="15.75" angle="180.00" x="492.00" y="949.31"/>
        <vehicle id="car9" eclass="HBEFA3/PC_G_EU4" CO2="3740.88" CO="11.97" HC="0.14" NOx="1.31" PMx="0.05" fuel="1.61" electricity="0.00" noise="66.64" route="route34" type="Car" waiting="0.00" lane="Road3_1" pos="50.58" speed="15.99" angle="270.00" x="949.42" y="504.80"/>
    </timestep>
    <timestep time="9.00">
        <vehicle id="car0" eclass="HBEFA3/PC_G_EU4" CO2="3038.57" CO="0.00" HC="0.06" NOx="0.98" PMx="0.03" fuel="1.31" electricity="0.00" noise="66.24" route="route43" type="Car" waiting="0.00" lane="Road4_0" pos="145.17" speed="15.98" angle="90.00" x="145.17" y="492.00"/>
        <vehicle id="car1" eclass="HBEFA3/PC_G_EU4" CO2="0.00" CO="0.00" HC="0.00" NOx="0.00" PMx="0.00" fuel="0.00" electricity="0.00" noise="65.59" route="route21" type="Car" waiting="0.00" lane="Road2_1" pos="144.48" speed="15.64" angle="0.00" x="504.80" y="144.48"/>
        <vehicle id="car10" eclass="HBEFA3/PC_G_EU4" CO2="2677.10" CO="0.00" HC="0.02" NOx="0.82" PMx="0.02" fuel="1.15" electricity="0.00" noise="65.90" route="route12" type="Car" waiting="0.00" lane="Road1_2" pos="66.10" speed="15.72" angle="180.00" x="498.40" y="933.90"/>
        <vehicle id="car11" eclass="HBEFA3/PC_G_EU4" CO2="3055.39" CO="0.00" HC="0.06" NOx="0.99" PMx="0.03" fuel="1.31" electricity="0.00" noise="66.25" route="route12" type="Car" waiting="0.00" lane="Road1_1" pos="34.91" speed="15.97" angle="180.00" x="495.20" y="965.09"/>
        <vehicle id="car12" eclass="HBEFA3/PC_G_EU4" CO2="0.00" CO="0.00" HC="0.00" NOx="0.00" PMx="0.00" fuel="0.00" electricity="0.00" noise="65.90" route="route43" type="Car" waiting="0.00" lane="Road4_0" pos="19.06" speed="15.96" angle="90.00" x="19.06" y="492.00"/>
        <vehicle id="car13" eclass="HBEFA3/PC_G_EU4" CO2="2558.32" CO="0.00" HC="0.00" NOx="0.76" PMx="0.02" fuel="1.10" electricity="0.00" noise="66.01" route="route21" type="Car" waiting="0.00" lane="Road2_1" pos="3.10" speed="16.00" angle="0.00" x="504.80" y="3.10"/>
        <vehicle id="car14" eclass="HBEFA3/PC_G_EU4" CO2="2558.32" CO="0.00" HC="0.00" NOx="0.76" PMx="0.02" fuel="1.10" electricity="0.00" noise="66.01" route="route34" type="Car" waiting="0.00" lane="Road3_1" pos="3.10" speed="16.00" angle="270.00" x="996.90" y="504.80"/>
        <vehicle id="car15" eclass="HBEFA3/PC_G_EU4" CO2="2558.32" CO="0.00" HC="0.00" NOx="0.76" PMx="0.02" fuel="1.10" electricity="0.00" noise="66.01" route="route12" type="Car" waiting="0.00" lane="Road1_2" pos="3.10" speed="16.00" angle="180.00" x="498.40" y="996.90"/>
        <vehicle id="car16" eclass="HBEFA3/PC_G_EU4" CO2="2558.32" CO="0.00" HC="0.00" NOx="0.76" PMx="0.02" fuel="1.10" electricity="0.00" noise="66.01" route="route21" type="Car" waiting="0.00" lane="Road2_2" pos="3.10" speed="16.00" angle="0.00" x="501.60" y="3.10"/>
        <vehicle id="car2" eclass="HBEFA3/PC_G_EU4" CO2="0.00" CO="0.00" HC="0.00" NOx="0.00" PMx="0.00" fuel="0.00" electricity="0.00" noise="65.88" route="route34" type="Car" waiting="0.00" lane="Road3_1" pos="113.68" speed="15.90" angle="270.00" x="886.32" y="504.80"/>
        <vehicle id="car3" eclass="HBEFA3/PC_G_EU4" CO2="0.00" CO="0.00" HC="0.00" NOx="0.00" PMx="0.00" fuel="0.00" electricity="0.00" noise="65.76" route="route43" type="Car" waiting="0.00" lane="Road4_2" pos="98.24" speed="15.84" angle="90.00" x="98.24" y="498.40"/>
        <vehicle id="car4" eclass="HBEFA3/PC_G_EU4" CO2="2755.55" CO="0.00" HC="0.03" NOx="0.85" PMx="0.02" fuel="1.18" electricity="0.00" noise="66.08" route="route12" type="Car" waiting="0.00" lane="Road1_2" pos="98.32" speed="15.96" angle="180.00" x="498.40" y="901.68"/>
        <vehicle id="car5" eclass="HBEFA3/PC_G_EU4" CO2="3808.69" CO="14.04" HC="0.15" NOx="1.35" PMx="0.05" fuel="1.64" electricity="0.00" noise="66.59" route="route43" type="Car" waiting="0.00" lane="Road4_2" pos="65.70" speed="15.83" angle="90.00" x="65.70" y="498.40"/>
        <vehicle id="car6" eclass="HBEFA3/PC_G_EU4" CO2="3725.68" CO="12.36" HC="0.14" NOx="1.31" PMx="0.05" fuel="1.60" electricity="0.00" noise="66.54" route="route21" type="Car" waiting="0.00" lane="Road2_1" pos="81.42" speed="15.82" angle="0.00" x="504.80" y="81.42"/>
        <vehicle id="car7" eclass="HBEFA3/PC_G_EU4" CO2="0.00" CO="0.00" HC="0.00" NOx="0.00" PMx="0.00" fuel="0.00" electricity="0.00" noise="65.26" route="route21" type="Car" waiting="0.00" lane="Road2_2" pos="81.53" speed="15.50" angle="0.00" x="501.60" y="81.53"/>
        <vehicle id="car8" eclass="HBEFA3/PC_G_EU4" CO2="3197.81" CO="1.11" HC="0.08" NOx="1.06" PMx="0.03" fuel="1.37" electricity="0.00" noise="66.29" route="route12" type="Car" waiting="0.00" lane="Road1_0" pos="66.60" speed="15.91" angle="180.00" x="492.00" y="933.40"/>
        <vehicle id="car9" eclass="HBEFA3/PC_G_EU4" CO2="0.00" CO="0.00" HC="0.00" NOx="0.00" PMx="0.00" fuel="0.00" electricity="0.00" noise="65.79" route="route34" type="Car" waiting="0.00" lane="Road3_1" pos="66.49" speed="15.91" angle="270.00" x="933.51" y="504.80"/>
    </timestep>
    <timestep time="10.00">
        <vehicle id="car0" eclass="HBEFA3/PC_G_EU4" CO2="0.00" CO="0.00" HC="0.00" NOx="0.00" PMx="0.00" fuel="0.00" electricity="0.00" noise="65.41" route="route43" type="Car" waiting="0.00" lane="Road4_0" pos="160.92" speed="15.75" angle="90.00" x="160.92" y="492.00"/>
        <vehicle id="car1" eclass="HBEFA3/PC_G_EU4" CO2="2538.84" CO="0.00" HC="0.01" NOx="0.75" PMx="0.02" fuel="1.09" electricity="0.00" noise="65.78" route="route21" type="Car" waiting="0.00" lane="Road2_0" pos="160.12" speed="15.64" angle="0.00" x="508.00" y="160.12"/>
        <vehicle id="car10" eclass="HBEFA3/PC_G_EU4" CO2="3086.28" CO="0.00" HC="0.07" NOx="1.01" PMx="0.03" fuel="1.33" electricity="0.00" noise="66.20" route="route12" type="Car" waiting="0.00" lane="Road1_2" pos="81.95" speed="15.85" angle="180.00" x="498.40" y="918.05"/>
        <vehicle id="car11" eclass="HBEFA3/PC_G_EU4" CO2="0.00" CO="0.00" HC="0.00" NOx="0.00" PMx="0.00" fuel="0.00" electricity="0.00" noise="65.40" route="route12" type="Car" waiting="0.00" lane="Road1_1" pos="50.66" speed="15.74" angle="180.00" x="495.20" y="949.34"/>
        <vehicle id="car12" eclass="HBEFA3/PC_G_EU4" CO2="0.00" CO="0.00" HC="0.00" NOx="0.00" PMx="0.00" fuel="0.00" electricity="0.00" noise="65.52" route="route43" type="Car" waiting="0.00" lane="Road4_0" pos="34.85" speed="15.79" angle="90.00" x="34.85" y="492.00"/>
        <vehicle id="car13" eclass="HBEFA3/PC_G_EU4" CO2="0.00" CO="0.00" HC="0.00" NOx="0.00" PMx="0.00" fuel="0.00" electricity="0.00" noise="64.90" route="route21" type="Car" waiting="0.00" lane="Road2_1" pos="18.66" speed="15.56" angle="0.00" x="504.80" y="18.66"/>
        <vehicle id="car14" eclass="HBEFA3/PC_G_EU4" CO2="0.00" CO="0.00" HC="0.00" NOx="0.00" PMx="0.00" fuel="0.00" electricity="0.00" noise="64.84" route="route34" type="Car" waiting="0.00" lane="Road3_1" pos="18.64" speed="15.54" angle="270.00" x="981.36" y="504.80"/>
        <vehicle id="car15" eclass="HBEFA3/PC_G_EU4" CO2="0.00" CO="0.00" HC="0.00" NOx="0.00" PMx="0.00" fuel="0.00" electricity="0.00" noise="65.87" route="route12" type="Car" waiting="0.00" lane="Road1_2" pos="19.05" speed="15.95" angle="180.00" x="498.40" y="980.95"/>
        <vehicle id="car16" eclass="HBEFA3/PC_G_EU4" CO2="0.00" CO="0.00" HC="0.00" NOx="0.00" PMx="0.00" fuel="0.00" electricity="0.00" noise="65.46" route="route21" type="Car" waiting="0.00" lane="Road2_2" pos="18.89" speed="15.79" angle="0.00" x="501.60" y="18.89"/>
        <vehicle id="car2" eclass="HBEFA3/PC_G_EU4" CO2="0.00" CO="0.00" HC="0.00" NOx="0.00" PMx="0.00" fuel="0.00" electricity="0.00" noise="65.07" route="route34" type="Car" waiting="0.00" lane="Road3_1" pos="129.24" speed="15.56" angle="270.00" x="870.76" y="504.80"/>
        <vehicle id="car3" eclass="HBEFA3/PC_G_EU4" CO2="0.00" CO="0.00" HC="0.00" NOx="0.00" PMx="0.00" fuel="0.00" electricity="0.00" noise="65.84" route="route43" type="Car" waiting="0.00" lane="Road4_2" pos="114.06" speed="15.82" angle="90.00" x="114.06" y="498.40"/>
        <vehicle id="car4" eclass="HBEFA3/PC_G_EU4" CO2="2686.43" CO="0.00" HC="0.02" NOx="0.82" PMx="0.02" fuel="1.15" electricity="0.00" noise="66.07" route="route12" type="Car" waiting="0.00" lane="Road1_2" pos="114.31" speed="15.99" angle="180.00" x="498.40" y="885.69"/>
        <vehicle id="car5" eclass="HBEFA3/PC_G_EU4" CO2="0.00" CO="0.00" HC="0.00" NOx="0.00" PMx="0.00" fuel="0.00" electricity="0.00" noise="65.06" route="route43" type="Car" waiting="0.00" lane="Road4_2" pos="81.22" speed="15.51" angle="90.00" x="81.22" y="498.40"/>
        <vehicle id="car6" eclass="HBEFA3/PC_G_EU4" CO2="0.00" CO="0.00" HC="0.00" NOx="0.00" PMx="0.00" fuel="0.00" electricity="0.00" noise="65.75" route="route21" type="Car" waiting="0.00" lane="Road2_1" pos="97.20" speed="15.77" angle="0.00" x="504.80" y="97.20"/>
        <vehicle id="car7" eclass="HBEFA3/PC_G_EU4" CO2="3357.20" CO="5.30" HC="0.10" NOx="1.14" PMx="0.04" fuel="1.44" electricity="0.00" noise="66.27" route="route21" type="Car" waiting="0.00" lane="Road2_2" pos="97.23" speed="15.71" angle="0.00" x="501.60" y="97.23"/>
        <vehicle id="car8" eclass="HBEFA3/PC_G_EU4" CO2="0.00" CO="0.00" HC="0.00" NOx="0.00" PMx="0.00" fuel="0.00" electricity="0.00" noise="65.11" route="route12" type="Car" waiting="0.00" lane="Road1_0" pos="82.19" speed="15.59" angle="180.00" x="492.00" y="917.81"/>
        <vehicle id="car9" eclass="HBEFA3/PC_G_EU4" CO2="0.00" CO="0.00" HC="0.00" NOx="0.00" PMx="0.00" fuel="0.00" electricity="0.00" noise="65.36" route="route34" type="Car" waiting="0.00" lane="Road3_1" pos="82.18" speed="15.69" angle="270.00" x="917.82" y="504.80"/>
    </timestep>
    <timestep time="11.00">
        <vehicle id="car0" eclass="HBEFA3/PC_G_EU4" CO2="0.00" CO="0.00" HC="0.00" NOx="0.00" PMx="0.00" fuel="0.00" electricity="0.00" noise="65.55" route="route43" type="Car" waiting="0.00" lane="Road4_0" pos="176.56" speed="15.64" angle="90.00" x="176.56" y="492.00"/>
        <vehicle id="car1" eclass="HBEFA3/PC_G_EU4" CO2="2804.90" CO="0.00" HC="0.04" NOx="0.88" PMx="0.02" fuel="1.21" electricity="0.00" noise="65.97" route="route21" type="Car" waiting="0.00" lane="Road2_0" pos="175.83" speed="15.71" angle="0.00" x="508.00" y="175.83"/>
        <vehicle id="car10" eclass="HBEFA3/PC_G_EU4" CO2="0.00" CO="0.00" HC="0.00" NOx="0.00" PMx="0.00" fuel="0.00" electricity="0.00" noise="65.43" route="route12" type="Car" waiting="0.00" lane="Road1_2" pos="97.61" speed="15.67" angle="180.00" x="498.40" y="902.39"/>
        <vehicle id="car11" eclass="HBEFA3/PC_G_EU4" CO2="0.00" CO="0.00" HC="0.00" NOx="0.00" PMx="0.00" fuel="0.00" electricity="0.00" noise="65.23" route="route12" type="Car" waiting="0.00" lane="Road1_1" pos="66.17" speed="15.51" angle="180.00" x="495.20" y="933.83"/>