<?xml version="1.0" encoding="UTF-8"?>

<!-- generated on 07/05/19 14:06:32 by Eclipse SUMO GUI Version 1.1.0
<configuration xmlns:xsi="http://www.w3.org/2001/XMLSchema-instance" xsi:noNamespaceSchemaLocation="http://sumo.dlr.de/xsd/sumoConfiguration.xsd">

    <input>
        <net-file value="NetFile.net.xml"/>
        <route-files value="TrafficLoads/HighTrafficLoad.rou.xml"/>
    </input>

    <output>
        <emission-output value="results/emission7.xml"/>
        <tripinfo-output value="results/tripinfo7.xml"/>
    </output>

    <time>
        <begin value="0"/>
    </time>

    <report>
        <verbose value="true"/>
        <no-step-log value="true"/>
    </report>

    <traci_server>
        <remote-port value="8873"/>
    </traci_server>

    <gui_only>
        <gui-settings-file value="nylandsvejPlainTest.set.xml"/>
    </gui_only>

</configuration>
-->

<emission-export xmlns:xsi="http://www.w3.org/2001/XMLSchema-instance" xsi:noNamespaceSchemaLocation="http://sumo.dlr.de/xsd/emission_file.xsd">
    <timestep time="0.00"/>
    <timestep time="1.00"/>
    <timestep time="2.00">
        <vehicle id="car0" eclass="HBEFA3/PC_G_EU4" CO2="2624.72" CO="164.78" HC="0.81" NOx="1.20" PMx="0.07" fuel="1.13" electricity="0.00" noise="55.94" route="route34" type="Car" waiting="0.00" lane="Road3_0" pos="3.10" speed="0.00" angle="270.00" x="996.90" y="501.60"/>
    </timestep>
    <timestep time="3.00">
        <vehicle id="car0" eclass="HBEFA3/PC_G_EU4" CO2="2635.34" CO="155.32" HC="0.77" NOx="1.19" PMx="0.06" fuel="1.13" electricity="0.00" noise="58.59" route="route34" type="Car" waiting="0.00" lane="Road3_0" pos="3.65" speed="0.55" angle="270.00" x="996.35" y="501.60"/>
    </timestep>
    <timestep time="4.00">
        <vehicle id="car0" eclass="HBEFA3/PC_G_EU4" CO2="2681.59" CO="145.37" HC="0.72" NOx="1.20" PMx="0.06" fuel="1.15" electricity="0.00" noise="59.23" route="route34" type="Car" waiting="0.00" lane="Road3_0" pos="4.85" speed="1.20" angle="270.00" x="995.15" y="501.60"/>
        <vehicle id="car1" eclass="HBEFA3/PC_G_EU4" CO2="2624.72" CO="164.78" HC="0.81" NOx="1.20" PMx="0.07" fuel="1.13" electricity="0.00" noise="55.94" route="route21" type="Car" waiting="0.00" lane="Road2_0" pos="3.10" speed="0.00" angle="0.00" x="501.60" y="3.10"/>
    </timestep>
    <timestep time="5.00">
        <vehicle id="car0" eclass="HBEFA3/PC_G_EU4" CO2="2933.79" CO="134.66" HC="0.68" NOx="1.29" PMx="0.06" fuel="1.26" electricity="0.00" noise="61.09" route="route34" type="Car" waiting="0.00" lane="Road3_0" pos="7.03" speed="2.18" angle="270.00" x="992.97" y="501.60"/>
        <vehicle id="car1" eclass="HBEFA3/PC_G_EU4" CO2="2679.62" CO="152.81" HC="0.76" NOx="1.21" PMx="0.06" fuel="1.15" electricity="0.00" noise="59.54" route="route21" type="Car" waiting="0.00" lane="Road2_0" pos="3.85" speed="0.75" angle="0.00" x="501.60" y="3.85"/>
        <vehicle id="car3" eclass="HBEFA3/PC_G_EU4" CO2="2624.72" CO="164.78" HC="0.81" NOx="1.20" PMx="0.07" fuel="1.13" electricity="0.00" noise="55.94" route="route43" type="Car" waiting="0.00" lane="Road4_0" pos="3.10" speed="0.00" angle="90.00" x="3.10" y="498.40"/>
    </timestep>
    <timestep time="6.00">
        <vehicle id="car0" eclass="HBEFA3/PC_G_EU4" CO2="2845.48" CO="121.87" HC="0.62" NOx="1.23" PMx="0.06" fuel="1.22" electricity="0.00" noise="60.21" route="route34" type="Car" waiting="0.00" lane="Road3_0" pos="9.91" speed="2.88" angle="270.00" x="990.09" y="501.60"/>
        <vehicle id="car1" eclass="HBEFA3/PC_G_EU4" CO2="2865.25" CO="140.36" HC="0.71" NOx="1.27" PMx="0.06" fuel="1.23" electricity="0.00" noise="60.91" route="route21" type="Car" waiting="0.00" lane="Road2_0" pos="5.59" speed="1.73" angle="0.00" x="501.60" y="5.59"/>
        <vehicle id="car3" eclass="HBEFA3/PC_G_EU4" CO2="2649.21" CO="154.34" HC="0.76" NOx="1.20" PMx="0.06" fuel="1.14" electricity="0.00" noise="58.94" route="route43" type="Car" waiting="0.00" lane="Road4_0" pos="3.73" speed="0.63" angle="90.00" x="3.73" y="498.40"/>
        <vehicle id="car4" eclass="HBEFA3/PC_G_EU4" CO2="2624.72" CO="164.78" HC="0.81" NOx="1.20" PMx="0.07" fuel="1.13" electricity="0.00" noise="55.94" route="route34" type="Car" waiting="0.00" lane="Road3_0" pos="3.10" speed="0.00" angle="270.00" x="996.90" y="501.60"/>
    </timestep>
    <timestep time="7.00">
        <vehicle id="car0" eclass="HBEFA3/PC_G_EU4" CO2="3106.15" CO="114.18" HC="0.59" NOx="1.33" PMx="0.06" fuel="1.34" electricity="0.00" noise="61.35" route="route34" type="Car" waiting="0.00" lane="Road3_0" pos="13.67" speed="3.76" angle="270.00" x="986.33" y="501.60"/>
        <vehicle id="car1" eclass="HBEFA3/PC_G_EU4" CO2="2748.21" CO="127.93" HC="0.65" NOx="1.20" PMx="0.06" fuel="1.18" electricity="0.00" noise="59.64" route="route21" type="Car" waiting="0.00" lane="Road2_0" pos="7.95" speed="2.36" angle="0.00" x="501.60" y="7.95"/>
        <vehicle id="car3" eclass="HBEFA3/PC_G_EU4" CO2="2856.97" CO="141.93" HC="0.71" NOx="1.27" PMx="0.06" fuel="1.23" electricity="0.00" noise="60.95" route="route43" type="Car" waiting="0.00" lane="Road4_0" pos="5.35" speed="1.63" angle="90.00" x="5.35" y="498.40"/>
        <vehicle id="car4" eclass="HBEFA3/PC_G_EU4" CO2="2672.41" CO="153.12" HC="0.76" NOx="1.21" PMx="0.06" fuel="1.15" electricity="0.00" noise="59.42" route="route34" type="Car" waiting="0.00" lane="Road3_0" pos="3.83" speed="0.73" angle="270.00" x="996.17" y="501.60"/>
    </timestep>
    <timestep time="8.00">
        <vehicle id="car0" eclass="HBEFA3/PC_G_EU4" CO2="2969.07" CO="101.90" HC="0.53" NOx="1.25" PMx="0.05" fuel="1.28" electricity="0.00" noise="60.76" route="route34" type="Car" waiting="0.00" lane="Road3_0" pos="18.09" speed="4.42" angle="270.00" x="981.91" y="501.60"/>
        <vehicle id="car1" eclass="HBEFA3/PC_G_EU4" CO2="2927.43" CO="119.72" HC="0.61" NOx="1.26" PMx="0.06" fuel="1.26" electricity="0.00" noise="60.62" route="route21" type="Car" waiting="0.00" lane="Road2_0" pos="11.08" speed="3.13" angle="0.00" x="501.60" y="11.08"/>
        <vehicle id="car2" eclass="HBEFA3/PC_G_EU4" CO2="2624.72" CO="164.78" HC="0.81" NOx="1.20" PMx="0.07" fuel="1.13" electricity="0.00" noise="55.94" route="route21" type="Car" waiting="0.00" lane="Road2_0" pos="3.10" speed="0.00" angle="0.00" x="501.60" y="3.10"/>
        <vehicle id="car3" eclass="HBEFA3/PC_G_EU4" CO2="2801.56" CO="129.31" HC="0.65" NOx="1.22" PMx="0.06" fuel="1.20" electricity="0.00" noise="60.03" route="route43" type="Car" waiting="0.00" lane="Road4_0" pos="7.70" speed="2.34" angle="90.00" x="7.70" y="498.40"/>
        <vehicle id="car4" eclass="HBEFA3/PC_G_EU4" CO2="2747.09" CO="141.82" HC="0.71" NOx="1.22" PMx="0.06" fuel="1.18" electricity="0.00" noise="59.89" route="route34" type="Car" waiting="0.00" lane="Road3_0" pos="5.32" speed="1.49" angle="270.00" x="994.68" y="501.60"/>
        <vehicle id="car5" eclass="HBEFA3/PC_G_EU4" CO2="2624.72" CO="164.78" HC="0.81" NOx="1.20" PMx="0.07" fuel="1.13" electricity="0.00" noise="55.94" route="route12" type="Car" waiting="0.00" lane="Road1_0" pos="3.10" speed="0.00" angle="180.00" x="498.40" y="996.90"/>
    </timestep>
    <timestep time="9.00">
        <vehicle id="car0" eclass="HBEFA3/PC_G_EU4" CO2="3354.22" CO="98.01" HC="0.52" NOx="1.40" PMx="0.06" fuel="1.44" electricity="0.00" noise="62.05" route="route34" type="Car" waiting="0.00" lane="Road3_0" pos="23.37" speed="5.29" angle="270.00" x="976.63" y="501.60"/>
        <vehicle id="car1" eclass="HBEFA3/PC_G_EU4" CO2="2794.05" CO="108.64" HC="0.56" NOx="1.18" PMx="0.05" fuel="1.20" electricity="0.00" noise="59.97" route="route21" type="Car" waiting="0.00" lane="Road2_0" pos="14.78" speed="3.70" angle="0.00" x="501.60" y="14.78"/>
        <vehicle id="car2" eclass="HBEFA3/PC_G_EU4" CO2="2704.88" CO="151.89" HC="0.75" NOx="1.22" PMx="0.06" fuel="1.16" electricity="0.00" noise="59.95" route="route21" type="Car" waiting="0.00" lane="Road2_0" pos="3.94" speed="0.84" angle="0.00" x="501.60" y="3.94"/>
        <vehicle id="car3" eclass="HBEFA3/PC_G_EU4" CO2="2820.87" CO="119.54" HC="0.61" NOx="1.21" PMx="0.06" fuel="1.21" electricity="0.00" noise="60.06" route="route43" type="Car" waiting="0.00" lane="Road4_0" pos="10.70" speed="3.00" angle="90.00" x="10.70" y="498.40"/>
        <vehicle id="car4" eclass="HBEFA3/PC_G_EU4" CO2="2975.63" CO="130.98" HC="0.67" NOx="1.30" PMx="0.06" fuel="1.28" electricity="0.00" noise="61.18" route="route34" type="Car" waiting="0.00" lane="Road3_0" pos="7.79" speed="2.46" angle="270.00" x="992.21" y="501.60"/>
        <vehicle id="car5" eclass="HBEFA3/PC_G_EU4" CO2="2754.22" CO="150.58" HC="0.75" NOx="1.24" PMx="0.06" fuel="1.18" electricity="0.00" noise="60.61" route="route12" type="Car" waiting="0.00" lane="Road1_0" pos="4.08" speed="0.98" angle="180.00" x="498.40" y="995.92"/>
    </timestep>
</emission-export>
