<?xml version="1.0" encoding="UTF-8"?>

<!-- generated on 07/01/19 10:48:31 by Eclipse SUMO GUI Version 1.1.0
<configuration xmlns:xsi="http://www.w3.org/2001/XMLSchema-instance" xsi:noNamespaceSchemaLocation="http://sumo.dlr.de/xsd/sumoConfiguration.xsd">

    <input>
        <net-file value="NetFile.net.xml"/>
        <route-files value="TempLoad.rou.xml"/>
    </input>

    <output>
        <emission-output value="results/emission7.xml"/>
        <tripinfo-output value="results/tripinfo7.xml"/>
    </output>

    <time>
        <begin value="0"/>
    </time>

    <report>
        <verbose value="true"/>
        <no-step-log value="true"/>
    </report>

    <traci_server>
        <remote-port value="8873"/>
    </traci_server>

    <gui_only>
        <gui-settings-file value="nylandsvejPlainTest.set.xml"/>
    </gui_only>

</configuration>
-->

<emission-export xmlns:xsi="http://www.w3.org/2001/XMLSchema-instance" xsi:noNamespaceSchemaLocation="http://sumo.dlr.de/xsd/emission_file.xsd">
    <timestep time="0.00"/>
    <timestep time="1.00"/>
    <timestep time="2.00">
        <vehicle id="car0" eclass="HBEFA3/PC_G_EU4" CO2="2624.72" CO="164.78" HC="0.81" NOx="1.20" PMx="0.07" fuel="1.13" electricity="0.00" noise="55.94" route="route34" type="Car" waiting="0.00" lane="Road3_2" pos="3.10" speed="0.00" angle="270.00" x="996.90" y="501.60"/>
    </timestep>
    <timestep time="3.00">
        <vehicle id="car0" eclass="HBEFA3/PC_G_EU4" CO2="2635.34" CO="155.32" HC="0.77" NOx="1.19" PMx="0.06" fuel="1.13" electricity="0.00" noise="58.59" route="route34" type="Car" waiting="0.00" lane="Road3_2" pos="3.65" speed="0.55" angle="270.00" x="996.35" y="501.60"/>
        <vehicle id="car1" eclass="HBEFA3/PC_G_EU4" CO2="2624.72" CO="164.78" HC="0.81" NOx="1.20" PMx="0.07" fuel="1.13" electricity="0.00" noise="55.94" route="route12" type="Car" waiting="0.00" lane="Road1_1" pos="3.10" speed="0.00" angle="180.00" x="495.20" y="996.90"/>
    </timestep>
    <timestep time="4.00">
        <vehicle id="car0" eclass="HBEFA3/PC_G_EU4" CO2="2834.59" CO="143.00" HC="0.72" NOx="1.26" PMx="0.06" fuel="1.22" electricity="0.00" noise="60.83" route="route34" type="Car" waiting="0.00" lane="Road3_2" pos="5.19" speed="1.53" angle="270.00" x="994.81" y="501.60"/>
        <vehicle id="car1" eclass="HBEFA3/PC_G_EU4" CO2="2652.47" CO="154.14" HC="0.76" NOx="1.20" PMx="0.06" fuel="1.14" electricity="0.00" noise="59.02" route="route12" type="Car" waiting="0.00" lane="Road1_1" pos="3.74" speed="0.64" angle="180.00" x="495.20" y="996.26"/>
        <vehicle id="car2" eclass="HBEFA3/PC_G_EU4" CO2="2624.72" CO="164.78" HC="0.81" NOx="1.20" PMx="0.07" fuel="1.13" electricity="0.00" noise="55.94" route="route34" type="Car" waiting="0.00" lane="Road3_1" pos="3.10" speed="0.00" angle="270.00" x="996.90" y="504.80"/>
    </timestep>
    <timestep time="5.00">
        <vehicle id="car0" eclass="HBEFA3/PC_G_EU4" CO2="2988.50" CO="130.53" HC="0.66" NOx="1.31" PMx="0.06" fuel="1.28" electricity="0.00" noise="61.24" route="route34" type="Car" waiting="0.00" lane="Road3_2" pos="7.70" speed="2.51" angle="270.00" x="992.30" y="501.60"/>
        <vehicle id="car1" eclass="HBEFA3/PC_G_EU4" CO2="2711.87" CO="143.49" HC="0.72" NOx="1.21" PMx="0.06" fuel="1.17" electricity="0.00" noise="59.56" route="route12" type="Car" waiting="0.00" lane="Road1_1" pos="5.09" speed="1.35" angle="180.00" x="495.20" y="994.91"/>
        <vehicle id="car2" eclass="HBEFA3/PC_G_EU4" CO2="2679.62" CO="152.81" HC="0.76" NOx="1.21" PMx="0.06" fuel="1.15" electricity="0.00" noise="59.54" route="route34" type="Car" waiting="0.00" lane="Road3_1" pos="3.85" speed="0.75" angle="270.00" x="996.15" y="504.80"/>
    </timestep>
    <timestep time="6.00">
        <vehicle id="car0" eclass="HBEFA3/PC_G_EU4" CO2="2900.74" CO="117.62" HC="0.60" NOx="1.25" PMx="0.06" fuel="1.25" electricity="0.00" noise="60.47" route="route34" type="Car" waiting="0.00" lane="Road3_2" pos="10.93" speed="3.24" angle="270.00" x="989.07" y="501.60"/>
        <vehicle id="car1" eclass="HBEFA3/PC_G_EU4" CO2="2883.10" CO="132.84" HC="0.67" NOx="1.27" PMx="0.06" fuel="1.24" electricity="0.00" noise="60.67" route="route12" type="Car" waiting="0.00" lane="Road1_1" pos="7.32" speed="2.23" angle="180.00" x="495.20" y="992.68"/>
        <vehicle id="car2" eclass="HBEFA3/PC_G_EU4" CO2="2686.80" CO="142.42" HC="0.71" NOx="1.20" PMx="0.06" fuel="1.16" electricity="0.00" noise="59.24" route="route34" type="Car" waiting="0.00" lane="Road3_1" pos="5.24" speed="1.38" angle="270.00" x="994.76" y="504.80"/>
    </timestep>
    <timestep time="7.00">
        <vehicle id="car0" eclass="HBEFA3/PC_G_EU4" CO2="2912.69" CO="108.11" HC="0.56" NOx="1.23" PMx="0.05" fuel="1.25" electricity="0.00" noise="60.50" route="route34" type="Car" waiting="0.00" lane="Road3_2" pos="14.83" speed="3.90" angle="270.00" x="985.17" y="501.60"/>
        <vehicle id="car1" eclass="HBEFA3/PC_G_EU4" CO2="3125.50" CO="122.47" HC="0.63" NOx="1.35" PMx="0.06" fuel="1.34" electricity="0.00" noise="61.63" route="route12" type="Car" waiting="0.00" lane="Road1_1" pos="10.54" speed="3.22" angle="180.00" x="495.20" y="989.46"/>
        <vehicle id="car2" eclass="HBEFA3/PC_G_EU4" CO2="2724.39" CO="132.99" HC="0.67" NOx="1.20" PMx="0.06" fuel="1.17" electricity="0.00" noise="59.49" route="route34" type="Car" waiting="0.00" lane="Road3_1" pos="7.25" speed="2.01" angle="270.00" x="992.75" y="504.80"/>
    </timestep>
    <timestep time="8.00">
        <vehicle id="car0" eclass="HBEFA3/PC_G_EU4" CO2="3055.83" CO="100.94" HC="0.53" NOx="1.28" PMx="0.05" fuel="1.31" electricity="0.00" noise="61.08" route="route34" type="Car" waiting="0.00" lane="Road3_2" pos="19.45" speed="4.62" angle="270.00" x="980.55" y="501.60"/>
        <vehicle id="car1" eclass="HBEFA3/PC_G_EU4" CO2="3037.74" CO="109.32" HC="0.57" NOx="1.29" PMx="0.06" fuel="1.31" electricity="0.00" noise="61.02" route="route12" type="Car" waiting="0.00" lane="Road1_1" pos="14.54" speed="4.00" angle="180.00" x="495.20" y="985.46"/>
        <vehicle id="car2" eclass="HBEFA3/PC_G_EU4" CO2="2880.09" CO="124.17" HC="0.63" NOx="1.25" PMx="0.06" fuel="1.24" electricity="0.00" noise="60.43" route="route34" type="Car" waiting="0.00" lane="Road3_1" pos="10.02" speed="2.78" angle="270.00" x="989.98" y="504.80"/>
    </timestep>
    <timestep time="9.00">
        <vehicle id="car0" eclass="HBEFA3/PC_G_EU4" CO2="2922.36" CO="90.56" HC="0.48" NOx="1.20" PMx="0.05" fuel="1.26" electricity="0.00" noise="60.73" route="route34" type="Car" waiting="0.00" lane="Road3_1" pos="24.63" speed="5.18" angle="270.00" x="975.37" y="504.80"/>
        <vehicle id="car1" eclass="HBEFA3/PC_G_EU4" CO2="3429.41" CO="103.87" HC="0.55" NOx="1.45" PMx="0.06" fuel="1.47" electricity="0.00" noise="62.32" route="route12" type="Car" waiting="0.00" lane="Road1_0" pos="19.50" speed="4.97" angle="180.00" x="492.00" y="980.50"/>
        <vehicle id="car2" eclass="HBEFA3/PC_G_EU4" CO2="3080.51" CO="115.29" HC="0.60" NOx="1.32" PMx="0.06" fuel="1.32" electricity="0.00" noise="61.26" route="route34" type="Car" waiting="0.00" lane="Road3_1" pos="13.67" speed="3.64" angle="270.00" x="986.33" y="504.80"/>
        <vehicle id="car3" eclass="HBEFA3/PC_G_EU4" CO2="2624.72" CO="164.78" HC="0.81" NOx="1.20" PMx="0.07" fuel="1.13" electricity="0.00" noise="55.94" route="route21" type="Car" waiting="0.00" lane="Road2_1" pos="3.10" speed="0.00" angle="0.00" x="504.80" y="3.10"/>
    </timestep>
    <timestep time="10.00">
        <vehicle id="car0" eclass="HBEFA3/PC_G_EU4" CO2="3691.24" CO="93.75" HC="0.51" NOx="1.54" PMx="0.07" fuel="1.59" electricity="0.00" noise="62.95" route="route34" type="Car" waiting="0.00" lane="Road3_1" pos="30.79" speed="6.16" angle="270.00" x="969.21" y="504.80"/>
        <vehicle id="car1" eclass="HBEFA3/PC_G_EU4" CO2="3108.21" CO="88.54" HC="0.47" NOx="1.28" PMx="0.05" fuel="1.34" electricity="0.00" noise="61.36" route="route12" type="Car" waiting="0.00" lane="Road1_0" pos="25.13" speed="5.62" angle="180.00" x="492.00" y="974.87"/>
        <vehicle id="car2" eclass="HBEFA3/PC_G_EU4" CO2="2482.93" CO="99.49" HC="0.51" NOx="1.03" PMx="0.04" fuel="1.07" electricity="0.00" noise="58.70" route="route34" type="Car" waiting="0.00" lane="Road3_0" pos="17.55" speed="3.89" angle="270.00" x="982.45" y="508.00"/>
        <vehicle id="car3" eclass="HBEFA3/PC_G_EU4" CO2="2704.88" CO="151.89" HC="0.75" NOx="1.22" PMx="0.06" fuel="1.16" electricity="0.00" noise="59.95" route="route21" type="Car" waiting="0.00" lane="Road2_1" pos="3.94" speed="0.84" angle="0.00" x="504.80" y="3.94"/>
        <vehicle id="car4" eclass="HBEFA3/PC_G_EU4" CO2="2624.72" CO="164.78" HC="0.81" NOx="1.20" PMx="0.07" fuel="1.13" electricity="0.00" noise="55.94" route="route12" type="Car" waiting="0.00" lane="Road1_0" pos="3.10" speed="0.00" angle="180.00" x="492.00" y="996.90"/>
        <vehicle id="car5" eclass="HBEFA3/PC_G_EU4" CO2="2624.72" CO="164.78" HC="0.81" NOx="1.20" PMx="0.07" fuel="1.13" electricity="0.00" noise="55.94" route="route12" type="Car" waiting="0.00" lane="Road1_1" pos="3.10" speed="0.00" angle="180.00" x="495.20" y="996.90"/>
    </timestep>
    <timestep time="11.00">
        <vehicle id="car0" eclass="HBEFA3/PC_G_EU4" CO2="3556.14" CO="81.19" HC="0.45" NOx="1.46" PMx="0.06" fuel="1.53" electricity="0.00" noise="62.67" route="route34" type="Car" waiting="0.00" lane="Road3_1" pos="37.75" speed="6.96" angle="270.00" x="962.25" y="504.80"/>
        <vehicle id="car1" eclass="HBEFA3/PC_G_EU4" CO2="3073.50" CO="80.34" HC="0.44" NOx="1.25" PMx="0.05" fuel="1.32" electricity="0.00" noise="61.40" route="route12" type="Car" waiting="0.00" lane="Road1_0" pos="31.34" speed="6.21" angle="180.00" x="492.00" y="968.66"/>
        <vehicle id="car2" eclass="HBEFA3/PC_G_EU4" CO2="3009.50" CO="100.66" HC="0.53" NOx="1.26" PMx="0.05" fuel="1.29" electricity="0.00" noise="60.92" route="route34" type="Car" waiting="0.00" lane="Road3_0" pos="22.12" speed="4.57" angle="270.00" x="977.88" y="508.00"/>
        <vehicle id="car3" eclass="HBEFA3/PC_G_EU4" CO2="2651.12" CO="141.90" HC="0.71" NOx="1.18" PMx="0.06" fuel="1.14" electricity="0.00" noise="58.80" route="route21" type="Car" waiting="0.00" lane="Road2_1" pos="5.31" speed="1.37" angle="0.00" x="504.80" y="5.31"/>
        <vehicle id="car4" eclass="HBEFA3/PC_G_EU4" CO2="2635.62" CO="155.30" HC="0.77" NOx="1.19" PMx="0.06" fuel="1.13" electricity="0.00" noise="58.60" route="route12" type="Car" waiting="0.00" lane="Road1_0" pos="3.66" speed="0.56" angle="180.00" x="492.00" y="996.34"/>
        <vehicle id="car5" eclass="HBEFA3/PC_G_EU4" CO2="2707.29" CO="151.81" HC="0.75" NOx="1.22" PMx="0.06" fuel="1.16" electricity="0.00" noise="59.99" route="route12" type="Car" waiting="0.00" lane="Road1_1" pos="3.95" speed="0.85" angle="180.00" x="495.20" y="996.05"/>
    </timestep>
    <timestep time="12.00">
        <vehicle id="car0" eclass="HBEFA3/PC_G_EU4" CO2="3980.13" CO="79.35" HC="0.45" NOx="1.63" PMx="0.07" fuel="1.71" electricity="0.00" noise="63.65" route="route34" type="Car" waiting="0.00" lane="Road3_1" pos="45.63" speed="7.88" angle="270.00" x="954.37" y="504.80"/>
        <vehicle id="car1" eclass="HBEFA3/PC_G_EU4" CO2="3662.80" CO="82.17" HC="0.46" NOx="1.50" PMx="0.06" fuel="1.57" electricity="0.00" noise="62.91" route="route12" type="Car" waiting="0.00" lane="Road1_0" pos="38.40" speed="7.06" angle="180.00" x="492.00" y="961.60"/>
        <vehicle id="car2" eclass="HBEFA3/PC_G_EU4" CO2="3403.31" CO="96.88" HC="0.52" NOx="1.42" PMx="0.06" fuel="1.46" electricity="0.00" noise="62.19" route="route34" type="Car" waiting="0.00" lane="Road3_0" pos="27.57" speed="5.45" angle="270.00" x="972.43" y="508.00"/>
        <vehicle id="car3" eclass="HBEFA3/PC_G_EU4" CO2="2966.34" CO="132.53" HC="0.67" NOx="1.30" PMx="0.06" fuel="1.28" electricity="0.00" noise="61.20" route="route21" type="Car" waiting="0.00" lane="Road2_1" pos="7.66" speed="2.35" angle="0.00" x="504.80" y="7.66"/>
        <vehicle id="car4" eclass="HBEFA3/PC_G_EU4" CO2="2672.26" CO="145.58" HC="0.72" NOx="1.19" PMx="0.06" fuel="1.15" electricity="0.00" noise="59.11" route="route12" type="Car" waiting="0.00" lane="Road1_0" pos="4.83" speed="1.17" angle="180.00" x="492.00" y="995.17"/>
        <vehicle id="car5" eclass="HBEFA3/PC_G_EU4" CO2="2738.60" CO="140.33" HC="0.70" NOx="1.21" PMx="0.06" fuel="1.18" electricity="0.00" noise="59.75" route="route12" type="Car" waiting="0.00" lane="Road1_1" pos="5.52" speed="1.57" angle="180.00" x="495.20" y="994.48"/>
    </timestep>
</emission-export>
