<?xml version="1.0" encoding="UTF-8"?>

<!-- generated on Mon 22 Apr 2019 12:55:31 PM CEST by Eclipse SUMO GUI Version 1.1.0
<configuration xmlns:xsi="http://www.w3.org/2001/XMLSchema-instance" xsi:noNamespaceSchemaLocation="http://sumo.dlr.de/xsd/sumoConfiguration.xsd">

    <input>
        <net-file value="NetFile.net.xml"/>
        <route-files value="RouteFile.rou.xml"/>
        <additional-files value="DetFile.det.xml"/>
    </input>

    <output>
        <tripinfo-output value="results/tripinfo2.xml"/>
    </output>

    <time>
        <begin value="0"/>
    </time>

    <report>
        <verbose value="true"/>
        <no-step-log value="true"/>
    </report>

    <traci_server>
        <remote-port value="8873"/>
    </traci_server>

    <gui_only>
        <gui-settings-file value="nylandsvejPlainTest.set.xml"/>
    </gui_only>

</configuration>
-->

<tripinfos xmlns:xsi="http://www.w3.org/2001/XMLSchema-instance" xsi:noNamespaceSchemaLocation="http://sumo.dlr.de/xsd/tripinfo_file.xsd">
    <tripinfo id="car41" depart="0.00" departLane="Road4_0" departPos="3.10" departSpeed="0.00" departDelay="0.00" arrival="997.00" arrivalLane="Road1_out_0" arrivalPos="492.80" arrivalSpeed="1.00" duration="997.00" routeLength="996.69" waitingTime="0.00" waitingCount="0" stopTime="0.00" timeLoss="937.39" rerouteNo="0" devices="tripinfo_car41" vType="Car" speedFactor="1.06" vaporized=""/>
    <tripinfo id="car42" depart="6.00" departLane="Road4_0" departPos="3.10" departSpeed="0.00" departDelay="6.00" arrival="998.00" arrivalLane="Road2_out_0" arrivalPos="492.80" arrivalSpeed="1.00" duration="992.00" routeLength="991.53" waitingTime="0.00" waitingCount="0" stopTime="0.00" timeLoss="925.08" rerouteNo="0" devices="tripinfo_car42" vType="Car" speedFactor="0.94" vaporized=""/>
</tripinfos>
