<?xml version="1.0" encoding="UTF-8"?>

<!-- generated on 06/17/19 11:28:01 by Eclipse SUMO GUI Version 1.1.0
<configuration xmlns:xsi="http://www.w3.org/2001/XMLSchema-instance" xsi:noNamespaceSchemaLocation="http://sumo.dlr.de/xsd/sumoConfiguration.xsd">

    <input>
        <net-file value="NetFile.net.xml"/>
        <route-files value="TempLoad.rou.xml"/>
    </input>

    <output>
        <emission-output value="results/emission5.xml"/>
        <tripinfo-output value="results/tripinfo5.xml"/>
    </output>

    <time>
        <begin value="0"/>
    </time>

    <report>
        <verbose value="true"/>
        <no-step-log value="true"/>
    </report>

    <traci_server>
        <remote-port value="8873"/>
    </traci_server>

    <gui_only>
        <gui-settings-file value="nylandsvejPlainTest.set.xml"/>
    </gui_only>

</configuration>
-->

<tripinfos xmlns:xsi="http://www.w3.org/2001/XMLSchema-instance" xsi:noNamespaceSchemaLocation="http://sumo.dlr.de/xsd/tripinfo_file.xsd">
    <tripinfo id="car0" depart="2.00" departLane="Road3_2" departPos="3.10" departSpeed="0.00" departDelay="0.00" arrival="75.00" arrivalLane="Road4_out_0" arrivalPos="486.40" arrivalSpeed="16.00" duration="73.00" routeLength="996.90" waitingTime="0.00" waitingCount="0" stopTime="0.00" timeLoss="9.83" rerouteNo="0" devices="tripinfo_car0" vType="Car@car0" speedFactor="1.00" vaporized=""/>
    <tripinfo id="car1" depart="3.00" departLane="Road1_1" departPos="3.10" departSpeed="0.00" departDelay="0.00" arrival="77.00" arrivalLane="Road2_out_0" arrivalPos="486.40" arrivalSpeed="16.00" duration="74.00" routeLength="996.90" waitingTime="0.00" waitingCount="0" stopTime="0.00" timeLoss="9.28" rerouteNo="0" devices="tripinfo_car1" vType="Car@car1" speedFactor="1.00" vaporized=""/>
    <tripinfo id="car2" depart="4.00" departLane="Road3_1" departPos="3.10" departSpeed="0.00" departDelay="0.00" arrival="78.00" arrivalLane="Road4_out_0" arrivalPos="486.40" arrivalSpeed="16.00" duration="74.00" routeLength="996.90" waitingTime="0.00" waitingCount="0" stopTime="0.00" timeLoss="10.72" rerouteNo="0" devices="tripinfo_car2" vType="Car@car2" speedFactor="1.00" vaporized=""/>
</tripinfos>
