<?xml version="1.0" encoding="UTF-8"?>

<!-- generated on 07/01/19 13:39:22 by Eclipse SUMO GUI Version 1.1.0
<configuration xmlns:xsi="http://www.w3.org/2001/XMLSchema-instance" xsi:noNamespaceSchemaLocation="http://sumo.dlr.de/xsd/sumoConfiguration.xsd">

    <input>
        <net-file value="NetFile.net.xml"/>
        <route-files value="TrafficLoads/HighTrafficLoad.rou.xml"/>
    </input>

    <output>
        <emission-output value="results/emission7.xml"/>
        <tripinfo-output value="results/tripinfo7.xml"/>
    </output>

    <time>
        <begin value="0"/>
    </time>

    <report>
        <verbose value="true"/>
        <no-step-log value="true"/>
    </report>

    <traci_server>
        <remote-port value="8873"/>
    </traci_server>

    <gui_only>
        <gui-settings-file value="nylandsvejPlainTest.set.xml"/>
    </gui_only>

</configuration>
-->

<tripinfos xmlns:xsi="http://www.w3.org/2001/XMLSchema-instance" xsi:noNamespaceSchemaLocation="http://sumo.dlr.de/xsd/tripinfo_file.xsd">
    <tripinfo id="car0" depart="2.00" departLane="Road3_0" departPos="3.10" departSpeed="0.00" departDelay="0.00" arrival="74.00" arrivalLane="Road4_out_0" arrivalPos="492.80" arrivalSpeed="16.00" duration="72.00" routeLength="996.90" waitingTime="0.00" waitingCount="0" stopTime="0.00" timeLoss="10.35" rerouteNo="0" devices="tripinfo_car0" vType="Car@car0" speedFactor="1.00" vaporized=""/>
</tripinfos>
