<?xml version="1.0" encoding="UTF-8"?>

<!-- generated on 07/01/19 12:28:00 by Eclipse SUMO GUI Version 1.1.0
<configuration xmlns:xsi="http://www.w3.org/2001/XMLSchema-instance" xsi:noNamespaceSchemaLocation="http://sumo.dlr.de/xsd/sumoConfiguration.xsd">

    <input>
        <net-file value="NetFile.net.xml"/>
        <route-files value="TrafficLoads/HighTrafficLoad.rou.xml"/>
    </input>

    <output>
        <emission-output value="results/emission7.xml"/>
        <tripinfo-output value="results/tripinfo7.xml"/>
    </output>

    <time>
        <begin value="0"/>
    </time>

    <report>
        <verbose value="true"/>
        <no-step-log value="true"/>
    </report>

    <traci_server>
        <remote-port value="8873"/>
    </traci_server>

    <gui_only>
        <gui-settings-file value="nylandsvejPlainTest.set.xml"/>
    </gui_only>

</configuration>
-->

<tripinfos xmlns:xsi="http://www.w3.org/2001/XMLSchema-instance" xsi:noNamespaceSchemaLocation="http://sumo.dlr.de/xsd/tripinfo_file.xsd">
    <tripinfo id="car0" depart="2.00" departLane="Road3_0" departPos="3.10" departSpeed="0.00" departDelay="0.00" arrival="74.00" arrivalLane="Road4_out_0" arrivalPos="492.80" arrivalSpeed="16.00" duration="72.00" routeLength="996.90" waitingTime="0.00" waitingCount="0" stopTime="0.00" timeLoss="10.35" rerouteNo="0" devices="tripinfo_car0" vType="Car@car0" speedFactor="1.00" vaporized=""/>
    <tripinfo id="car3" depart="5.00" departLane="Road4_0" departPos="3.10" departSpeed="0.00" departDelay="0.00" arrival="77.00" arrivalLane="Road3_out_0" arrivalPos="492.80" arrivalSpeed="16.00" duration="72.00" routeLength="996.90" waitingTime="0.00" waitingCount="0" stopTime="0.00" timeLoss="11.15" rerouteNo="0" devices="tripinfo_car3" vType="Car@car3" speedFactor="1.00" vaporized=""/>
    <tripinfo id="car1" depart="4.00" departLane="Road2_0" departPos="3.10" departSpeed="0.00" departDelay="0.00" arrival="78.00" arrivalLane="Road1_out_0" arrivalPos="492.80" arrivalSpeed="16.00" duration="74.00" routeLength="996.90" waitingTime="0.00" waitingCount="0" stopTime="0.00" timeLoss="9.64" rerouteNo="0" devices="tripinfo_car1" vType="Car@car1" speedFactor="1.00" vaporized=""/>
    <tripinfo id="car4" depart="6.00" departLane="Road3_0" departPos="3.10" departSpeed="0.00" departDelay="1.00" arrival="79.00" arrivalLane="Road4_out_0" arrivalPos="492.80" arrivalSpeed="16.00" duration="73.00" routeLength="996.90" waitingTime="0.00" waitingCount="0" stopTime="0.00" timeLoss="10.61" rerouteNo="0" devices="tripinfo_car4" vType="Car@car4" speedFactor="1.00" vaporized=""/>
    <tripinfo id="car2" depart="8.00" departLane="Road2_0" departPos="3.10" departSpeed="0.00" departDelay="4.00" arrival="81.00" arrivalLane="Road1_out_0" arrivalPos="492.80" arrivalSpeed="16.00" duration="73.00" routeLength="996.90" waitingTime="0.00" waitingCount="0" stopTime="0.00" timeLoss="10.70" rerouteNo="0" devices="tripinfo_car2" vType="Car@car2" speedFactor="1.00" vaporized=""/>
    <tripinfo id="car5" depart="8.00" departLane="Road1_0" departPos="3.10" departSpeed="0.00" departDelay="0.00" arrival="84.00" arrivalLane="Road2_out_0" arrivalPos="492.80" arrivalSpeed="16.00" duration="76.00" routeLength="996.90" waitingTime="0.00" waitingCount="0" stopTime="0.00" timeLoss="9.13" rerouteNo="0" devices="tripinfo_car5" vType="Car@car5" speedFactor="1.00" vaporized=""/>
    <tripinfo id="car10" depart="15.00" departLane="Road2_0" departPos="3.10" departSpeed="0.00" departDelay="0.00" arrival="86.00" arrivalLane="Road1_out_0" arrivalPos="492.80" arrivalSpeed="16.00" duration="71.00" routeLength="996.90" waitingTime="0.00" waitingCount="0" stopTime="0.00" timeLoss="10.21" rerouteNo="0" devices="tripinfo_car10" vType="Car@car10" speedFactor="1.00" vaporized=""/>
    <tripinfo id="car6" depart="12.00" departLane="Road1_0" departPos="3.10" departSpeed="0.00" departDelay="3.00" arrival="86.00" arrivalLane="Road2_out_0" arrivalPos="492.80" arrivalSpeed="16.00" duration="74.00" routeLength="996.90" waitingTime="0.00" waitingCount="0" stopTime="0.00" timeLoss="12.12" rerouteNo="0" devices="tripinfo_car6" vType="Car@car6" speedFactor="1.00" vaporized=""/>
    <tripinfo id="car7" depart="12.00" departLane="Road4_0" departPos="3.10" departSpeed="0.00" departDelay="0.00" arrival="87.00" arrivalLane="Road3_out_0" arrivalPos="492.80" arrivalSpeed="16.00" duration="75.00" routeLength="996.90" waitingTime="0.00" waitingCount="0" stopTime="0.00" timeLoss="9.77" rerouteNo="0" devices="tripinfo_car7" vType="Car@car7" speedFactor="1.00" vaporized=""/>
    <tripinfo id="car8" depart="16.00" departLane="Road4_0" departPos="3.10" departSpeed="0.00" departDelay="4.00" arrival="90.00" arrivalLane="Road3_out_0" arrivalPos="492.80" arrivalSpeed="16.00" duration="74.00" routeLength="996.90" waitingTime="0.00" waitingCount="0" stopTime="0.00" timeLoss="9.82" rerouteNo="0" devices="tripinfo_car8" vType="Car@car8" speedFactor="1.00" vaporized=""/>
    <tripinfo id="car11" depart="19.00" departLane="Road2_0" departPos="3.10" departSpeed="0.00" departDelay="4.00" arrival="92.00" arrivalLane="Road1_out_0" arrivalPos="492.80" arrivalSpeed="16.00" duration="73.00" routeLength="996.90" waitingTime="0.00" waitingCount="0" stopTime="0.00" timeLoss="10.55" rerouteNo="0" devices="tripinfo_car11" vType="Car@car11" speedFactor="1.00" vaporized=""/>
    <tripinfo id="car9" depart="16.00" departLane="Road1_0" departPos="3.10" departSpeed="0.00" departDelay="4.00" arrival="92.00" arrivalLane="Road2_out_0" arrivalPos="492.80" arrivalSpeed="16.00" duration="76.00" routeLength="996.90" waitingTime="0.00" waitingCount="0" stopTime="0.00" timeLoss="9.72" rerouteNo="0" devices="tripinfo_car9" vType="Car@car9" speedFactor="1.00" vaporized=""/>
    <tripinfo id="car12" depart="20.00" departLane="Road1_0" departPos="3.10" departSpeed="0.00" departDelay="1.00" arrival="94.00" arrivalLane="Road2_out_0" arrivalPos="492.80" arrivalSpeed="16.00" duration="74.00" routeLength="996.90" waitingTime="0.00" waitingCount="0" stopTime="0.00" timeLoss="11.84" rerouteNo="0" devices="tripinfo_car12" vType="Car@car12" speedFactor="1.00" vaporized=""/>
    <tripinfo id="car13" depart="23.00" departLane="Road2_0" departPos="3.10" departSpeed="0.00" departDelay="3.00" arrival="95.00" arrivalLane="Road1_out_0" arrivalPos="492.80" arrivalSpeed="16.00" duration="72.00" routeLength="996.90" waitingTime="0.00" waitingCount="0" stopTime="0.00" timeLoss="11.87" rerouteNo="0" devices="tripinfo_car13" vType="Car@car13" speedFactor="1.00" vaporized=""/>
    <tripinfo id="car16" depart="22.00" departLane="Road3_0" departPos="3.10" departSpeed="0.00" departDelay="0.00" arrival="97.00" arrivalLane="Road4_out_0" arrivalPos="492.80" arrivalSpeed="16.00" duration="75.00" routeLength="996.90" waitingTime="0.00" waitingCount="0" stopTime="0.00" timeLoss="8.97" rerouteNo="0" devices="tripinfo_car16" vType="Car@car16" speedFactor="1.00" vaporized=""/>
    <tripinfo id="car19" depart="25.00" departLane="Road4_0" departPos="3.10" departSpeed="0.00" departDelay="0.00" arrival="98.00" arrivalLane="Road3_out_0" arrivalPos="492.80" arrivalSpeed="16.00" duration="73.00" routeLength="996.90" waitingTime="0.00" waitingCount="0" stopTime="0.00" timeLoss="12.97" rerouteNo="0" devices="tripinfo_car19" vType="Car@car19" speedFactor="1.00" vaporized=""/>
    <tripinfo id="car15" depart="24.00" departLane="Road1_0" departPos="3.10" departSpeed="0.00" departDelay="2.00" arrival="98.00" arrivalLane="Road2_out_0" arrivalPos="492.80" arrivalSpeed="16.00" duration="74.00" routeLength="996.90" waitingTime="0.00" waitingCount="0" stopTime="0.00" timeLoss="9.74" rerouteNo="0" devices="tripinfo_car15" vType="Car@car15" speedFactor="1.00" vaporized=""/>
    <tripinfo id="car18" depart="26.00" departLane="Road3_0" departPos="3.10" departSpeed="0.00" departDelay="1.00" arrival="99.00" arrivalLane="Road4_out_0" arrivalPos="492.80" arrivalSpeed="16.00" duration="73.00" routeLength="996.90" waitingTime="0.00" waitingCount="0" stopTime="0.00" timeLoss="8.98" rerouteNo="0" devices="tripinfo_car18" vType="Car@car18" speedFactor="1.00" vaporized=""/>
    <tripinfo id="car14" depart="27.00" departLane="Road2_0" departPos="3.10" departSpeed="0.00" departDelay="7.00" arrival="100.00" arrivalLane="Road1_out_0" arrivalPos="492.80" arrivalSpeed="16.00" duration="73.00" routeLength="996.90" waitingTime="0.00" waitingCount="0" stopTime="0.00" timeLoss="10.23" rerouteNo="0" devices="tripinfo_car14" vType="Car@car14" speedFactor="1.00" vaporized=""/>
    <tripinfo id="car17" depart="28.00" departLane="Road1_0" departPos="3.10" departSpeed="0.00" departDelay="4.00" arrival="101.00" arrivalLane="Road2_out_0" arrivalPos="492.80" arrivalSpeed="16.00" duration="73.00" routeLength="996.90" waitingTime="0.00" waitingCount="0" stopTime="0.00" timeLoss="9.20" rerouteNo="0" devices="tripinfo_car17" vType="Car@car17" speedFactor="1.00" vaporized=""/>
    <tripinfo id="car21" depart="29.00" departLane="Road4_0" departPos="3.10" departSpeed="0.00" departDelay="2.00" arrival="103.00" arrivalLane="Road3_out_0" arrivalPos="492.80" arrivalSpeed="16.00" duration="74.00" routeLength="996.90" waitingTime="0.00" waitingCount="0" stopTime="0.00" timeLoss="11.47" rerouteNo="0" devices="tripinfo_car21" vType="Car@car21" speedFactor="1.00" vaporized=""/>
    <tripinfo id="car22" depart="32.00" departLane="Road1_0" departPos="3.10" departSpeed="0.00" departDelay="5.00" arrival="106.00" arrivalLane="Road2_out_0" arrivalPos="492.80" arrivalSpeed="16.00" duration="74.00" routeLength="996.90" waitingTime="0.00" waitingCount="0" stopTime="0.00" timeLoss="10.98" rerouteNo="0" devices="tripinfo_car22" vType="Car@car22" speedFactor="1.00" vaporized=""/>
    <tripinfo id="car30" depart="35.00" departLane="Road3_0" departPos="3.10" departSpeed="0.00" departDelay="0.00" arrival="107.00" arrivalLane="Road4_out_0" arrivalPos="492.80" arrivalSpeed="16.00" duration="72.00" routeLength="996.90" waitingTime="0.00" waitingCount="0" stopTime="0.00" timeLoss="12.71" rerouteNo="0" devices="tripinfo_car30" vType="Car@car30" speedFactor="1.00" vaporized=""/>
    <tripinfo id="car23" depart="34.00" departLane="Road4_0" departPos="3.10" departSpeed="0.00" departDelay="6.00" arrival="109.00" arrivalLane="Road3_out_0" arrivalPos="492.80" arrivalSpeed="16.00" duration="75.00" routeLength="996.90" waitingTime="0.00" waitingCount="0" stopTime="0.00" timeLoss="9.73" rerouteNo="0" devices="tripinfo_car23" vType="Car@car23" speedFactor="1.00" vaporized=""/>
    <tripinfo id="car20" depart="31.00" departLane="Road2_0" departPos="3.10" departSpeed="0.00" departDelay="5.00" arrival="109.00" arrivalLane="Road1_out_0" arrivalPos="492.80" arrivalSpeed="14.00" duration="78.00" routeLength="996.90" waitingTime="0.00" waitingCount="0" stopTime="0.00" timeLoss="15.60" rerouteNo="0" devices="tripinfo_car20" vType="Car@car20" speedFactor="1.00" vaporized=""/>
    <tripinfo id="car24" depart="35.00" departLane="Road2_0" departPos="3.10" departSpeed="0.00" departDelay="6.00" arrival="111.00" arrivalLane="Road1_out_0" arrivalPos="492.80" arrivalSpeed="16.00" duration="76.00" routeLength="996.90" waitingTime="0.00" waitingCount="0" stopTime="0.00" timeLoss="8.79" rerouteNo="0" devices="tripinfo_car24" vType="Car@car24" speedFactor="1.00" vaporized=""/>
    <tripinfo id="car25" depart="36.00" departLane="Road1_0" departPos="3.10" departSpeed="0.00" departDelay="6.00" arrival="111.00" arrivalLane="Road2_out_0" arrivalPos="492.80" arrivalSpeed="16.00" duration="75.00" routeLength="996.90" waitingTime="0.00" waitingCount="0" stopTime="0.00" timeLoss="9.23" rerouteNo="0" devices="tripinfo_car25" vType="Car@car25" speedFactor="1.00" vaporized=""/>
    <tripinfo id="car28" depart="39.00" departLane="Road2_0" departPos="3.10" departSpeed="0.00" departDelay="6.00" arrival="113.00" arrivalLane="Road1_out_0" arrivalPos="492.80" arrivalSpeed="16.00" duration="74.00" routeLength="996.90" waitingTime="0.00" waitingCount="0" stopTime="0.00" timeLoss="13.52" rerouteNo="0" devices="tripinfo_car28" vType="Car@car28" speedFactor="1.00" vaporized=""/>
    <tripinfo id="car26" depart="40.00" departLane="Road1_0" departPos="3.10" departSpeed="0.00" departDelay="9.00" arrival="116.00" arrivalLane="Road2_out_0" arrivalPos="492.80" arrivalSpeed="16.00" duration="76.00" routeLength="996.90" waitingTime="0.00" waitingCount="0" stopTime="0.00" timeLoss="10.70" rerouteNo="0" devices="tripinfo_car26" vType="Car@car26" speedFactor="1.00" vaporized=""/>
    <tripinfo id="car29" depart="43.00" departLane="Road2_0" departPos="3.10" departSpeed="0.00" departDelay="9.00" arrival="117.00" arrivalLane="Road1_out_0" arrivalPos="492.80" arrivalSpeed="16.00" duration="74.00" routeLength="996.90" waitingTime="0.00" waitingCount="0" stopTime="0.00" timeLoss="9.35" rerouteNo="0" devices="tripinfo_car29" vType="Car@car29" speedFactor="1.00" vaporized=""/>
    <tripinfo id="car27" depart="38.00" departLane="Road4_0" departPos="3.10" departSpeed="0.00" departDelay="7.00" arrival="118.00" arrivalLane="Road3_out_0" arrivalPos="492.80" arrivalSpeed="14.00" duration="80.00" routeLength="996.90" waitingTime="0.00" waitingCount="0" stopTime="0.00" timeLoss="15.81" rerouteNo="0" devices="tripinfo_car27" vType="Car@car27" speedFactor="1.00" vaporized=""/>
    <tripinfo id="car34" depart="40.00" departLane="Road3_0" departPos="3.10" departSpeed="0.00" departDelay="0.00" arrival="119.00" arrivalLane="Road4_out_0" arrivalPos="492.80" arrivalSpeed="14.00" duration="79.00" routeLength="996.90" waitingTime="0.00" waitingCount="0" stopTime="0.00" timeLoss="16.04" rerouteNo="0" devices="tripinfo_car34" vType="Car@car34" speedFactor="1.00" vaporized=""/>
    <tripinfo id="car35" depart="44.00" departLane="Road3_0" departPos="3.10" departSpeed="0.00" departDelay="2.00" arrival="120.00" arrivalLane="Road4_out_0" arrivalPos="492.80" arrivalSpeed="15.00" duration="76.00" routeLength="996.90" waitingTime="0.00" waitingCount="0" stopTime="0.00" timeLoss="13.87" rerouteNo="0" devices="tripinfo_car35" vType="Car@car35" speedFactor="1.00" vaporized=""/>
    <tripinfo id="car37" depart="47.00" departLane="Road2_0" departPos="3.10" departSpeed="0.00" departDelay="2.00" arrival="120.00" arrivalLane="Road1_out_0" arrivalPos="492.80" arrivalSpeed="16.00" duration="73.00" routeLength="996.90" waitingTime="0.00" waitingCount="0" stopTime="0.00" timeLoss="13.85" rerouteNo="0" devices="tripinfo_car37" vType="Car@car37" speedFactor="1.00" vaporized=""/>
    <tripinfo id="car32" depart="42.00" departLane="Road4_0" departPos="3.10" departSpeed="0.00" departDelay="5.00" arrival="122.00" arrivalLane="Road3_out_0" arrivalPos="492.80" arrivalSpeed="14.00" duration="80.00" routeLength="996.90" waitingTime="0.00" waitingCount="0" stopTime="0.00" timeLoss="17.18" rerouteNo="0" devices="tripinfo_car32" vType="Car@car32" speedFactor="1.00" vaporized=""/>
    <tripinfo id="car33" depart="46.00" departLane="Road4_0" departPos="3.10" departSpeed="0.00" departDelay="9.00" arrival="123.00" arrivalLane="Road3_out_0" arrivalPos="492.80" arrivalSpeed="14.00" duration="77.00" routeLength="996.90" waitingTime="0.00" waitingCount="0" stopTime="0.00" timeLoss="17.91" rerouteNo="0" devices="tripinfo_car33" vType="Car@car33" speedFactor="1.00" vaporized=""/>
    <tripinfo id="car39" depart="48.00" departLane="Road3_0" departPos="3.10" departSpeed="0.00" departDelay="2.00" arrival="128.00" arrivalLane="Road4_out_0" arrivalPos="492.80" arrivalSpeed="14.00" duration="80.00" routeLength="996.90" waitingTime="0.00" waitingCount="0" stopTime="0.00" timeLoss="15.03" rerouteNo="0" devices="tripinfo_car39" vType="Car@car39" speedFactor="1.00" vaporized=""/>
    <tripinfo id="car42" depart="51.00" departLane="Road2_0" departPos="3.10" departSpeed="0.00" departDelay="1.00" arrival="129.00" arrivalLane="Road1_out_0" arrivalPos="492.80" arrivalSpeed="14.00" duration="78.00" routeLength="996.90" waitingTime="0.00" waitingCount="0" stopTime="0.00" timeLoss="17.21" rerouteNo="0" devices="tripinfo_car42" vType="Car@car42" speedFactor="1.00" vaporized=""/>
    <tripinfo id="car31" depart="44.00" departLane="Road1_0" departPos="3.10" departSpeed="0.00" departDelay="8.00" arrival="130.00" arrivalLane="Road2_out_0" arrivalPos="492.80" arrivalSpeed="12.00" duration="86.00" routeLength="996.90" waitingTime="0.00" waitingCount="0" stopTime="0.00" timeLoss="26.48" rerouteNo="0" devices="tripinfo_car31" vType="Car@car31" speedFactor="1.00" vaporized=""/>
    <tripinfo id="car47" depart="56.00" departLane="Road2_0" departPos="3.10" departSpeed="0.00" departDelay="0.00" arrival="131.00" arrivalLane="Road1_out_0" arrivalPos="492.80" arrivalSpeed="16.00" duration="75.00" routeLength="996.90" waitingTime="0.00" waitingCount="0" stopTime="0.00" timeLoss="9.60" rerouteNo="0" devices="tripinfo_car47" vType="Car@car47" speedFactor="1.00" vaporized=""/>
    <tripinfo id="car38" depart="48.00" departLane="Road1_0" departPos="3.10" departSpeed="0.00" departDelay="3.00" arrival="133.00" arrivalLane="Road2_out_0" arrivalPos="492.80" arrivalSpeed="12.00" duration="85.00" routeLength="996.90" waitingTime="0.00" waitingCount="0" stopTime="0.00" timeLoss="24.43" rerouteNo="0" devices="tripinfo_car38" vType="Car@car38" speedFactor="1.00" vaporized=""/>
    <tripinfo id="car49" depart="58.00" departLane="Road3_0" departPos="3.10" departSpeed="0.00" departDelay="0.00" arrival="134.00" arrivalLane="Road4_out_0" arrivalPos="492.80" arrivalSpeed="16.00" duration="76.00" routeLength="996.90" waitingTime="0.00" waitingCount="0" stopTime="0.00" timeLoss="9.57" rerouteNo="0" devices="tripinfo_car49" vType="Car@car49" speedFactor="1.00" vaporized=""/>
    <tripinfo id="car41" depart="52.00" departLane="Road1_0" departPos="3.10" departSpeed="0.00" departDelay="4.00" arrival="134.00" arrivalLane="Road2_out_0" arrivalPos="492.80" arrivalSpeed="13.00" duration="82.00" routeLength="996.90" waitingTime="0.00" waitingCount="0" stopTime="0.00" timeLoss="18.56" rerouteNo="0" devices="tripinfo_car41" vType="Car@car41" speedFactor="1.00" vaporized=""/>
    <tripinfo id="car36" depart="50.00" departLane="Road4_0" departPos="3.10" departSpeed="0.00" departDelay="5.00" arrival="136.00" arrivalLane="Road3_out_0" arrivalPos="492.80" arrivalSpeed="12.00" duration="86.00" routeLength="996.90" waitingTime="0.00" waitingCount="0" stopTime="0.00" timeLoss="22.71" rerouteNo="0" devices="tripinfo_car36" vType="Car@car36" speedFactor="1.00" vaporized=""/>
    <tripinfo id="car50" depart="60.00" departLane="Road2_0" departPos="3.10" departSpeed="0.00" departDelay="1.00" arrival="136.00" arrivalLane="Road1_out_0" arrivalPos="492.80" arrivalSpeed="16.00" duration="76.00" routeLength="996.90" waitingTime="0.00" waitingCount="0" stopTime="0.00" timeLoss="9.34" rerouteNo="0" devices="tripinfo_car50" vType="Car@car50" speedFactor="1.00" vaporized=""/>
    <tripinfo id="car43" depart="56.00" departLane="Road1_0" departPos="3.10" departSpeed="0.00" departDelay="5.00" arrival="136.00" arrivalLane="Road2_out_0" arrivalPos="492.80" arrivalSpeed="13.00" duration="80.00" routeLength="996.90" waitingTime="0.00" waitingCount="0" stopTime="0.00" timeLoss="17.94" rerouteNo="0" devices="tripinfo_car43" vType="Car@car43" speedFactor="1.00" vaporized=""/>
    <tripinfo id="car40" depart="54.00" departLane="Road4_0" departPos="3.10" departSpeed="0.00" departDelay="8.00" arrival="137.00" arrivalLane="Road3_out_0" arrivalPos="492.80" arrivalSpeed="12.00" duration="83.00" routeLength="996.90" waitingTime="0.00" waitingCount="0" stopTime="0.00" timeLoss="21.37" rerouteNo="0" devices="tripinfo_car40" vType="Car@car40" speedFactor="1.00" vaporized=""/>
    <tripinfo id="car45" depart="60.00" departLane="Road1_0" departPos="3.10" departSpeed="0.00" departDelay="7.00" arrival="137.00" arrivalLane="Road2_out_0" arrivalPos="492.80" arrivalSpeed="14.00" duration="77.00" routeLength="996.90" waitingTime="0.00" waitingCount="0" stopTime="0.00" timeLoss="16.18" rerouteNo="0" devices="tripinfo_car45" vType="Car@car45" speedFactor="1.00" vaporized=""/>
    <tripinfo id="car51" depart="63.00" departLane="Road3_0" departPos="3.10" departSpeed="0.00" departDelay="0.00" arrival="141.00" arrivalLane="Road4_out_0" arrivalPos="492.80" arrivalSpeed="14.00" duration="78.00" routeLength="996.90" waitingTime="0.00" waitingCount="0" stopTime="0.00" timeLoss="18.79" rerouteNo="0" devices="tripinfo_car51" vType="Car@car51" speedFactor="1.00" vaporized=""/>
    <tripinfo id="car55" depart="67.00" departLane="Road1_0" departPos="3.10" departSpeed="0.00" departDelay="0.00" arrival="141.00" arrivalLane="Road2_out_0" arrivalPos="492.80" arrivalSpeed="16.00" duration="74.00" routeLength="996.90" waitingTime="0.00" waitingCount="0" stopTime="0.00" timeLoss="10.62" rerouteNo="0" devices="tripinfo_car55" vType="Car@car55" speedFactor="1.00" vaporized=""/>
    <tripinfo id="car52" depart="67.00" departLane="Road3_0" departPos="3.10" departSpeed="0.00" departDelay="4.00" arrival="143.00" arrivalLane="Road4_out_0" arrivalPos="492.80" arrivalSpeed="14.00" duration="76.00" routeLength="996.90" waitingTime="0.00" waitingCount="0" stopTime="0.00" timeLoss="13.47" rerouteNo="0" devices="tripinfo_car52" vType="Car@car52" speedFactor="1.00" vaporized=""/>
    <tripinfo id="car53" depart="65.00" departLane="Road2_0" departPos="3.10" departSpeed="0.00" departDelay="0.00" arrival="143.00" arrivalLane="Road1_out_0" arrivalPos="492.80" arrivalSpeed="14.00" duration="78.00" routeLength="996.90" waitingTime="0.00" waitingCount="0" stopTime="0.00" timeLoss="17.55" rerouteNo="0" devices="tripinfo_car53" vType="Car@car53" speedFactor="1.00" vaporized=""/>
    <tripinfo id="car44" depart="58.00" departLane="Road4_0" departPos="3.10" departSpeed="0.00" departDelay="7.00" arrival="144.00" arrivalLane="Road3_out_0" arrivalPos="492.80" arrivalSpeed="12.00" duration="86.00" routeLength="996.90" waitingTime="0.00" waitingCount="0" stopTime="0.00" timeLoss="24.28" rerouteNo="0" devices="tripinfo_car44" vType="Car@car44" speedFactor="1.00" vaporized=""/>
    <tripinfo id="car46" depart="62.00" departLane="Road4_0" departPos="3.10" departSpeed="0.00" departDelay="8.00" arrival="145.00" arrivalLane="Road3_out_0" arrivalPos="492.80" arrivalSpeed="13.00" duration="83.00" routeLength="996.90" waitingTime="0.00" waitingCount="0" stopTime="0.00" timeLoss="20.55" rerouteNo="0" devices="tripinfo_car46" vType="Car@car46" speedFactor="1.00" vaporized=""/>
    <tripinfo id="car57" depart="69.00" departLane="Road2_0" departPos="3.10" departSpeed="0.00" departDelay="1.00" arrival="145.00" arrivalLane="Road1_out_0" arrivalPos="492.80" arrivalSpeed="14.00" duration="76.00" routeLength="996.90" waitingTime="0.00" waitingCount="0" stopTime="0.00" timeLoss="15.93" rerouteNo="0" devices="tripinfo_car57" vType="Car@car57" speedFactor="1.00" vaporized=""/>
    <tripinfo id="car59" depart="71.00" departLane="Road1_0" departPos="3.10" departSpeed="0.00" departDelay="3.00" arrival="145.00" arrivalLane="Road2_out_0" arrivalPos="492.80" arrivalSpeed="16.00" duration="74.00" routeLength="996.90" waitingTime="0.00" waitingCount="0" stopTime="0.00" timeLoss="10.66" rerouteNo="0" devices="tripinfo_car59" vType="Car@car59" speedFactor="1.00" vaporized=""/>
    <tripinfo id="car54" depart="71.00" departLane="Road3_0" departPos="3.10" departSpeed="0.00" departDelay="6.00" arrival="146.00" arrivalLane="Road4_out_0" arrivalPos="492.80" arrivalSpeed="16.00" duration="75.00" routeLength="996.90" waitingTime="0.00" waitingCount="0" stopTime="0.00" timeLoss="11.78" rerouteNo="0" devices="tripinfo_car54" vType="Car@car54" speedFactor="1.00" vaporized=""/>
    <tripinfo id="car60" depart="73.00" departLane="Road2_0" departPos="3.10" departSpeed="0.00" departDelay="4.00" arrival="146.00" arrivalLane="Road1_out_0" arrivalPos="492.80" arrivalSpeed="15.17" duration="73.00" routeLength="996.90" waitingTime="0.00" waitingCount="0" stopTime="0.00" timeLoss="12.11" rerouteNo="0" devices="tripinfo_car60" vType="Car@car60" speedFactor="1.00" vaporized=""/>
    <tripinfo id="car48" depart="66.00" departLane="Road4_0" departPos="3.10" departSpeed="0.00" departDelay="10.00" arrival="147.00" arrivalLane="Road3_out_0" arrivalPos="492.80" arrivalSpeed="14.00" duration="81.00" routeLength="996.90" waitingTime="0.00" waitingCount="0" stopTime="0.00" timeLoss="15.04" rerouteNo="0" devices="tripinfo_car48" vType="Car@car48" speedFactor="1.00" vaporized=""/>
    <tripinfo id="car69" depart="77.00" departLane="Road2_0" departPos="3.10" departSpeed="0.00" departDelay="1.00" arrival="150.00" arrivalLane="Road1_out_0" arrivalPos="492.80" arrivalSpeed="16.00" duration="73.00" routeLength="996.90" waitingTime="0.00" waitingCount="0" stopTime="0.00" timeLoss="10.34" rerouteNo="0" devices="tripinfo_car69" vType="Car@car69" speedFactor="1.00" vaporized=""/>
    <tripinfo id="car63" depart="75.00" departLane="Road1_0" departPos="3.10" departSpeed="0.00" departDelay="5.00" arrival="150.00" arrivalLane="Road2_out_0" arrivalPos="492.80" arrivalSpeed="16.00" duration="75.00" routeLength="996.90" waitingTime="0.00" waitingCount="0" stopTime="0.00" timeLoss="11.69" rerouteNo="0" devices="tripinfo_car63" vType="Car@car63" speedFactor="1.00" vaporized=""/>
    <tripinfo id="car56" depart="70.00" departLane="Road4_0" departPos="3.10" departSpeed="0.00" departDelay="3.00" arrival="151.00" arrivalLane="Road3_out_0" arrivalPos="492.80" arrivalSpeed="14.00" duration="81.00" routeLength="996.90" waitingTime="0.00" waitingCount="0" stopTime="0.00" timeLoss="15.45" rerouteNo="0" devices="tripinfo_car56" vType="Car@car56" speedFactor="1.00" vaporized=""/>
    <tripinfo id="car61" depart="74.00" departLane="Road4_0" departPos="3.10" departSpeed="0.00" departDelay="4.00" arrival="152.00" arrivalLane="Road3_out_0" arrivalPos="492.80" arrivalSpeed="14.00" duration="78.00" routeLength="996.90" waitingTime="0.00" waitingCount="0" stopTime="0.00" timeLoss="17.95" rerouteNo="0" devices="tripinfo_car61" vType="Car@car61" speedFactor="1.00" vaporized=""/>
    <tripinfo id="car62" depart="79.00" departLane="Road4_0" departPos="3.10" departSpeed="0.00" departDelay="9.00" arrival="154.00" arrivalLane="Road3_out_0" arrivalPos="492.80" arrivalSpeed="15.00" duration="75.00" routeLength="996.90" waitingTime="0.00" waitingCount="0" stopTime="0.00" timeLoss="12.29" rerouteNo="0" devices="tripinfo_car62" vType="Car@car62" speedFactor="1.00" vaporized=""/>
    <tripinfo id="car70" depart="81.00" departLane="Road2_0" departPos="3.10" departSpeed="0.00" departDelay="5.00" arrival="154.00" arrivalLane="Road1_out_0" arrivalPos="492.80" arrivalSpeed="16.00" duration="73.00" routeLength="996.90" waitingTime="0.00" waitingCount="0" stopTime="0.00" timeLoss="11.19" rerouteNo="0" devices="tripinfo_car70" vType="Car@car70" speedFactor="1.00" vaporized=""/>
    <tripinfo id="car64" depart="81.00" departLane="Road1_0" departPos="3.10" departSpeed="0.00" departDelay="10.00" arrival="154.00" arrivalLane="Road2_out_0" arrivalPos="492.80" arrivalSpeed="16.00" duration="73.00" routeLength="996.90" waitingTime="0.00" waitingCount="0" stopTime="0.00" timeLoss="8.97" rerouteNo="0" devices="tripinfo_car64" vType="Car@car64" speedFactor="1.00" vaporized=""/>
    <tripinfo id="car58" depart="77.00" departLane="Road3_0" departPos="3.10" departSpeed="0.00" departDelay="9.00" arrival="156.00" arrivalLane="Road4_out_0" arrivalPos="492.80" arrivalSpeed="14.00" duration="79.00" routeLength="996.90" waitingTime="0.00" waitingCount="0" stopTime="0.00" timeLoss="16.57" rerouteNo="0" devices="tripinfo_car58" vType="Car@car58" speedFactor="1.00" vaporized=""/>
    <tripinfo id="car65" depart="80.00" departLane="Road3_0" departPos="3.10" departSpeed="0.00" departDelay="8.00" arrival="157.00" arrivalLane="Road4_out_0" arrivalPos="492.80" arrivalSpeed="15.49" duration="77.00" routeLength="996.90" waitingTime="0.00" waitingCount="0" stopTime="0.00" timeLoss="11.43" rerouteNo="0" devices="tripinfo_car65" vType="Car@car65" speedFactor="1.00" vaporized=""/>
    <tripinfo id="car75" depart="83.00" departLane="Road4_0" departPos="3.10" departSpeed="0.00" departDelay="3.00" arrival="157.00" arrivalLane="Road3_out_0" arrivalPos="492.80" arrivalSpeed="16.00" duration="74.00" routeLength="996.90" waitingTime="0.00" waitingCount="0" stopTime="0.00" timeLoss="10.39" rerouteNo="0" devices="tripinfo_car75" vType="Car@car75" speedFactor="1.00" vaporized=""/>
    <tripinfo id="car79" depart="87.00" departLane="Road4_0" departPos="3.10" departSpeed="0.00" departDelay="4.00" arrival="159.00" arrivalLane="Road3_out_0" arrivalPos="492.80" arrivalSpeed="16.00" duration="72.00" routeLength="996.90" waitingTime="0.00" waitingCount="0" stopTime="0.00" timeLoss="10.75" rerouteNo="0" devices="tripinfo_car79" vType="Car@car79" speedFactor="1.00" vaporized=""/>
    <tripinfo id="car68" depart="87.00" departLane="Road3_0" departPos="3.10" departSpeed="0.00" departDelay="11.00" arrival="160.00" arrivalLane="Road4_out_0" arrivalPos="492.80" arrivalSpeed="16.00" duration="73.00" routeLength="996.90" waitingTime="0.00" waitingCount="0" stopTime="0.00" timeLoss="10.63" rerouteNo="0" devices="tripinfo_car68" vType="Car@car68" speedFactor="1.00" vaporized=""/>
    <tripinfo id="car66" depart="86.00" departLane="Road1_0" departPos="3.10" departSpeed="0.00" departDelay="13.00" arrival="161.00" arrivalLane="Road2_out_0" arrivalPos="492.80" arrivalSpeed="16.00" duration="75.00" routeLength="996.90" waitingTime="0.00" waitingCount="0" stopTime="0.00" timeLoss="9.66" rerouteNo="0" devices="tripinfo_car66" vType="Car@car66" speedFactor="1.00" vaporized=""/>