<?xml version="1.0" encoding="UTF-8"?>

<!-- generated on 07/01/19 10:43:50 by Eclipse SUMO GUI Version 1.1.0
<configuration xmlns:xsi="http://www.w3.org/2001/XMLSchema-instance" xsi:noNamespaceSchemaLocation="http://sumo.dlr.de/xsd/sumoConfiguration.xsd">

    <input>
        <net-file value="NetFile.net.xml"/>
        <route-files value="TempLoad.rou.xml"/>
    </input>

    <output>
        <emission-output value="results/emission1.xml"/>
        <tripinfo-output value="results/tripinfo1.xml"/>
    </output>

    <time>
        <begin value="0"/>
    </time>

    <report>
        <verbose value="true"/>
        <no-step-log value="true"/>
    </report>

    <traci_server>
        <remote-port value="8873"/>
    </traci_server>

    <gui_only>
        <gui-settings-file value="nylandsvejPlainTest.set.xml"/>
    </gui_only>

</configuration>
-->

<tripinfos xmlns:xsi="http://www.w3.org/2001/XMLSchema-instance" xsi:noNamespaceSchemaLocation="http://sumo.dlr.de/xsd/tripinfo_file.xsd">
    <tripinfo id="car0" depart="2.00" departLane="Road3_2" departPos="3.10" departSpeed="0.00" departDelay="0.00" arrival="75.00" arrivalLane="Road4_out_0" arrivalPos="486.40" arrivalSpeed="16.00" duration="73.00" routeLength="996.90" waitingTime="0.00" waitingCount="0" stopTime="0.00" timeLoss="9.83" rerouteNo="0" devices="tripinfo_car0" vType="Car@car0" speedFactor="1.00" vaporized=""/>
    <tripinfo id="car1" depart="3.00" departLane="Road1_1" departPos="3.10" departSpeed="0.00" departDelay="0.00" arrival="77.00" arrivalLane="Road2_out_0" arrivalPos="486.40" arrivalSpeed="16.00" duration="74.00" routeLength="996.90" waitingTime="0.00" waitingCount="0" stopTime="0.00" timeLoss="9.28" rerouteNo="0" devices="tripinfo_car1" vType="Car@car1" speedFactor="1.00" vaporized=""/>
    <tripinfo id="car2" depart="4.00" departLane="Road3_1" departPos="3.10" departSpeed="0.00" departDelay="0.00" arrival="78.00" arrivalLane="Road4_out_0" arrivalPos="486.40" arrivalSpeed="16.00" duration="74.00" routeLength="996.90" waitingTime="0.00" waitingCount="0" stopTime="0.00" timeLoss="10.72" rerouteNo="0" devices="tripinfo_car2" vType="Car@car2" speedFactor="1.00" vaporized=""/>
    <tripinfo id="car3" depart="9.00" departLane="Road2_1" departPos="3.10" departSpeed="0.00" departDelay="0.00" arrival="82.00" arrivalLane="Road1_out_0" arrivalPos="486.40" arrivalSpeed="16.00" duration="73.00" routeLength="996.90" waitingTime="0.00" waitingCount="0" stopTime="0.00" timeLoss="10.15" rerouteNo="0" devices="tripinfo_car3" vType="Car@car3" speedFactor="1.00" vaporized=""/>
    <tripinfo id="car4" depart="10.00" departLane="Road1_0" departPos="3.10" departSpeed="0.00" departDelay="0.00" arrival="83.00" arrivalLane="Road2_out_0" arrivalPos="486.40" arrivalSpeed="16.00" duration="73.00" routeLength="996.90" waitingTime="0.00" waitingCount="0" stopTime="0.00" timeLoss="10.21" rerouteNo="0" devices="tripinfo_car4" vType="Car@car4" speedFactor="1.00" vaporized=""/>
    <tripinfo id="car5" depart="10.00" departLane="Road1_1" departPos="3.10" departSpeed="0.00" departDelay="0.00" arrival="86.00" arrivalLane="Road2_out_0" arrivalPos="486.40" arrivalSpeed="16.00" duration="76.00" routeLength="996.90" waitingTime="0.00" waitingCount="0" stopTime="0.00" timeLoss="8.80" rerouteNo="0" devices="tripinfo_car5" vType="Car@car5" speedFactor="1.00" vaporized=""/>
    <tripinfo id="car10" depart="18.00" departLane="Road1_2" departPos="3.10" departSpeed="0.00" departDelay="0.00" arrival="90.00" arrivalLane="Road2_out_1" arrivalPos="486.40" arrivalSpeed="16.00" duration="72.00" routeLength="996.90" waitingTime="0.00" waitingCount="0" stopTime="0.00" timeLoss="9.65" rerouteNo="0" devices="tripinfo_car10" vType="Car@car10" speedFactor="1.00" vaporized=""/>
    <tripinfo id="car7" depart="16.00" departLane="Road3_2" departPos="3.10" departSpeed="0.00" departDelay="0.00" arrival="91.00" arrivalLane="Road4_out_0" arrivalPos="486.40" arrivalSpeed="16.00" duration="75.00" routeLength="996.90" waitingTime="0.00" waitingCount="0" stopTime="0.00" timeLoss="8.99" rerouteNo="0" devices="tripinfo_car7" vType="Car@car7" speedFactor="1.00" vaporized=""/>
    <tripinfo id="car6" depart="14.00" departLane="Road4_2" departPos="3.10" departSpeed="0.00" departDelay="0.00" arrival="93.00" arrivalLane="Road3_out_0" arrivalPos="486.40" arrivalSpeed="14.00" duration="79.00" routeLength="996.90" waitingTime="0.00" waitingCount="0" stopTime="0.00" timeLoss="16.57" rerouteNo="0" devices="tripinfo_car6" vType="Car@car6" speedFactor="1.00" vaporized=""/>
    <tripinfo id="car11" depart="20.00" departLane="Road3_1" departPos="3.10" departSpeed="0.00" departDelay="0.00" arrival="93.00" arrivalLane="Road4_out_0" arrivalPos="486.40" arrivalSpeed="16.00" duration="73.00" routeLength="996.90" waitingTime="0.00" waitingCount="0" stopTime="0.00" timeLoss="10.27" rerouteNo="0" devices="tripinfo_car11" vType="Car@car11" speedFactor="1.00" vaporized=""/>
    <tripinfo id="car12" depart="22.00" departLane="Road1_2" departPos="3.10" departSpeed="0.00" departDelay="2.00" arrival="96.00" arrivalLane="Road2_out_1" arrivalPos="486.40" arrivalSpeed="16.00" duration="74.00" routeLength="996.90" waitingTime="0.00" waitingCount="0" stopTime="0.00" timeLoss="11.18" rerouteNo="0" devices="tripinfo_car12" vType="Car@car12" speedFactor="1.00" vaporized=""/>
    <tripinfo id="car14" depart="23.00" departLane="Road2_2" departPos="3.10" departSpeed="0.00" departDelay="0.00" arrival="96.00" arrivalLane="Road1_out_0" arrivalPos="486.40" arrivalSpeed="16.00" duration="73.00" routeLength="996.90" waitingTime="0.00" waitingCount="0" stopTime="0.00" timeLoss="10.32" rerouteNo="0" devices="tripinfo_car14" vType="Car@car14" speedFactor="1.00" vaporized=""/>
    <tripinfo id="car13" depart="23.00" departLane="Road1_1" departPos="3.10" departSpeed="0.00" departDelay="0.00" arrival="96.00" arrivalLane="Road2_out_0" arrivalPos="486.40" arrivalSpeed="16.00" duration="73.00" routeLength="996.90" waitingTime="0.00" waitingCount="0" stopTime="0.00" timeLoss="10.22" rerouteNo="0" devices="tripinfo_car13" vType="Car@car13" speedFactor="1.00" vaporized=""/>
    <tripinfo id="car8" depart="17.00" departLane="Road4_1" departPos="3.10" departSpeed="0.00" departDelay="0.00" arrival="97.00" arrivalLane="Road3_out_0" arrivalPos="486.40" arrivalSpeed="14.00" duration="80.00" routeLength="996.90" waitingTime="0.00" waitingCount="0" stopTime="0.00" timeLoss="15.60" rerouteNo="0" devices="tripinfo_car8" vType="Car@car8" speedFactor="1.00" vaporized=""/>
    <tripinfo id="car9" depart="20.00" departLane="Road3_2" departPos="3.10" departSpeed="0.00" departDelay="3.00" arrival="97.00" arrivalLane="Road4_out_0" arrivalPos="486.40" arrivalSpeed="16.00" duration="77.00" routeLength="996.90" waitingTime="0.00" waitingCount="0" stopTime="0.00" timeLoss="9.97" rerouteNo="0" devices="tripinfo_car9" vType="Car@car9" speedFactor="1.00" vaporized=""/>
    <tripinfo id="car15" depart="25.00" departLane="Road3_2" departPos="3.10" departSpeed="0.00" departDelay="0.00" arrival="99.00" arrivalLane="Road4_out_0" arrivalPos="486.40" arrivalSpeed="16.00" duration="74.00" routeLength="996.90" waitingTime="0.00" waitingCount="0" stopTime="0.00" timeLoss="9.67" rerouteNo="0" devices="tripinfo_car15" vType="Car@car15" speedFactor="1.00" vaporized=""/>
    <tripinfo id="car17" depart="26.00" departLane="Road4_1" departPos="3.10" departSpeed="0.00" departDelay="0.00" arrival="100.00" arrivalLane="Road3_out_0" arrivalPos="486.40" arrivalSpeed="16.00" duration="74.00" routeLength="996.90" waitingTime="0.00" waitingCount="0" stopTime="0.00" timeLoss="9.57" rerouteNo="0" devices="tripinfo_car17" vType="Car@car17" speedFactor="1.00" vaporized=""/>
    <tripinfo id="car18" depart="26.00" departLane="Road4_2" departPos="3.10" departSpeed="0.00" departDelay="0.00" arrival="101.00" arrivalLane="Road3_out_1" arrivalPos="486.40" arrivalSpeed="16.00" duration="75.00" routeLength="996.90" waitingTime="0.00" waitingCount="0" stopTime="0.00" timeLoss="10.50" rerouteNo="0" devices="tripinfo_car18" vType="Car@car18" speedFactor="1.00" vaporized=""/>
    <tripinfo id="car19" depart="30.00" departLane="Road4_0" departPos="3.10" departSpeed="0.00" departDelay="0.00" arrival="102.00" arrivalLane="Road3_out_0" arrivalPos="486.40" arrivalSpeed="16.00" duration="72.00" routeLength="996.90" waitingTime="0.00" waitingCount="0" stopTime="0.00" timeLoss="9.55" rerouteNo="0" devices="tripinfo_car19" vType="Car@car19" speedFactor="1.00" vaporized=""/>
    <tripinfo id="car16" depart="27.00" departLane="Road1_2" departPos="3.10" departSpeed="0.00" departDelay="2.00" arrival="102.00" arrivalLane="Road2_out_0" arrivalPos="486.40" arrivalSpeed="16.00" duration="75.00" routeLength="996.90" waitingTime="0.00" waitingCount="0" stopTime="0.00" timeLoss="9.41" rerouteNo="0" devices="tripinfo_car16" vType="Car@car16" speedFactor="1.00" vaporized=""/>
    <tripinfo id="car21" depart="31.00" departLane="Road2_1" departPos="3.10" departSpeed="0.00" departDelay="0.00" arrival="104.00" arrivalLane="Road1_out_0" arrivalPos="486.40" arrivalSpeed="16.00" duration="73.00" routeLength="996.90" waitingTime="0.00" waitingCount="0" stopTime="0.00" timeLoss="10.52" rerouteNo="0" devices="tripinfo_car21" vType="Car@car21" speedFactor="1.00" vaporized=""/>
    <tripinfo id="car20" depart="34.00" departLane="Road4_0" departPos="3.10" departSpeed="0.00" departDelay="3.00" arrival="108.00" arrivalLane="Road3_out_0" arrivalPos="486.40" arrivalSpeed="16.00" duration="74.00" routeLength="996.90" waitingTime="0.00" waitingCount="0" stopTime="0.00" timeLoss="11.19" rerouteNo="0" devices="tripinfo_car20" vType="Car@car20" speedFactor="1.00" vaporized=""/>
    <tripinfo id="car22" depart="35.00" departLane="Road4_1" departPos="3.10" departSpeed="0.00" departDelay="0.00" arrival="109.00" arrivalLane="Road3_out_1" arrivalPos="486.40" arrivalSpeed="16.00" duration="74.00" routeLength="996.90" waitingTime="0.00" waitingCount="0" stopTime="0.00" timeLoss="10.40" rerouteNo="0" devices="tripinfo_car22" vType="Car@car22" speedFactor="1.00" vaporized=""/>
    <tripinfo id="car23" depart="36.00" departLane="Road3_2" departPos="3.10" departSpeed="0.00" departDelay="0.00" arrival="111.00" arrivalLane="Road4_out_0" arrivalPos="486.40" arrivalSpeed="16.00" duration="75.00" routeLength="996.90" waitingTime="0.00" waitingCount="0" stopTime="0.00" timeLoss="9.38" rerouteNo="0" devices="tripinfo_car23" vType="Car@car23" speedFactor="1.00" vaporized=""/>
    <tripinfo id="car26" depart="38.00" departLane="Road2_1" departPos="3.10" departSpeed="0.00" departDelay="0.00" arrival="112.00" arrivalLane="Road1_out_0" arrivalPos="486.40" arrivalSpeed="16.00" duration="74.00" routeLength="996.90" waitingTime="0.00" waitingCount="0" stopTime="0.00" timeLoss="9.53" rerouteNo="0" devices="tripinfo_car26" vType="Car@car26" speedFactor="1.00" vaporized=""/>
    <tripinfo id="car24" depart="37.00" departLane="Road2_0" departPos="3.10" departSpeed="0.00" departDelay="0.00" arrival="114.00" arrivalLane="Road1_out_0" arrivalPos="486.40" arrivalSpeed="16.00" duration="77.00" routeLength="996.90" waitingTime="0.00" waitingCount="0" stopTime="0.00" timeLoss="9.64" rerouteNo="0" devices="tripinfo_car24" vType="Car@car24" speedFactor="1.00" vaporized=""/>
    <tripinfo id="car25" depart="39.00" departLane="Road4_1" departPos="3.10" departSpeed="0.00" departDelay="1.00" arrival="115.00" arrivalLane="Road3_out_0" arrivalPos="486.40" arrivalSpeed="16.00" duration="76.00" routeLength="996.90" waitingTime="0.00" waitingCount="0" stopTime="0.00" timeLoss="10.07" rerouteNo="0" devices="tripinfo_car25" vType="Car@car25" speedFactor="1.00" vaporized=""/>
    <tripinfo id="car27" depart="42.00" departLane="Road3_1" departPos="3.10" departSpeed="0.00" departDelay="0.00" arrival="116.00" arrivalLane="Road4_out_0" arrivalPos="486.40" arrivalSpeed="16.00" duration="74.00" routeLength="996.90" waitingTime="0.00" waitingCount="0" stopTime="0.00" timeLoss="10.11" rerouteNo="0" devices="tripinfo_car27" vType="Car@car27" speedFactor="1.00" vaporized=""/>
    <tripinfo id="car29" depart="43.00" departLane="Road4_2" departPos="3.10" departSpeed="0.00" departDelay="0.00" arrival="118.00" arrivalLane="Road3_out_1" arrivalPos="486.40" arrivalSpeed="16.00" duration="75.00" routeLength="996.90" waitingTime="0.00" waitingCount="0" stopTime="0.00" timeLoss="10.52" rerouteNo="0" devices="tripinfo_car29" vType="Car@car29" speedFactor="1.00" vaporized=""/>
    <tripinfo id="car31" depart="45.00" departLane="Road1_0" departPos="3.10" departSpeed="0.00" departDelay="0.00" arrival="118.00" arrivalLane="Road2_out_0" arrivalPos="486.40" arrivalSpeed="16.00" duration="73.00" routeLength="996.90" waitingTime="0.00" waitingCount="0" stopTime="0.00" timeLoss="10.19" rerouteNo="0" devices="tripinfo_car31" vType="Car@car31" speedFactor="1.00" vaporized=""/>
    <tripinfo id="car28" depart="46.00" departLane="Road3_1" departPos="3.10" departSpeed="0.00" departDelay="4.00" arrival="119.00" arrivalLane="Road4_out_0" arrivalPos="486.40" arrivalSpeed="16.00" duration="73.00" routeLength="996.90" waitingTime="0.00" waitingCount="0" stopTime="0.00" timeLoss="10.54" rerouteNo="0" devices="tripinfo_car28" vType="Car@car28" speedFactor="1.00" vaporized=""/>
    <tripinfo id="car30" depart="47.00" departLane="Road4_2" departPos="3.10" departSpeed="0.00" departDelay="4.00" arrival="121.00" arrivalLane="Road3_out_0" arrivalPos="486.40" arrivalSpeed="16.00" duration="74.00" routeLength="996.90" waitingTime="1.00" waitingCount="1" stopTime="0.00" timeLoss="11.30" rerouteNo="0" devices="tripinfo_car30" vType="Car@car30" speedFactor="1.00" vaporized=""/>
    <tripinfo id="car32" depart="51.00" departLane="Road1_0" departPos="3.10" departSpeed="0.00" departDelay="0.00" arrival="124.00" arrivalLane="Road2_out_0" arrivalPos="486.40" arrivalSpeed="16.00" duration="73.00" routeLength="996.90" waitingTime="0.00" waitingCount="0" stopTime="0.00" timeLoss="10.49" rerouteNo="0" devices="tripinfo_car32" vType="Car@car32" speedFactor="1.00" vaporized=""/>
</tripinfos>
