<?xml version="1.0" encoding="UTF-8"?>

<!-- generated on 05/27/19 16:24:41 by Eclipse SUMO Version 1.1.0
<configuration xmlns:xsi="http://www.w3.org/2001/XMLSchema-instance" xsi:noNamespaceSchemaLocation="http://sumo.dlr.de/xsd/sumoConfiguration.xsd">

    <input>
        <net-file value="TrafficLightNet.net.xml"/>
        <route-files value="TempLoad.rou.xml"/>
    </input>

    <output>
        <emission-output value="results/emission5.xml"/>
        <tripinfo-output value="results/tripinfo5.xml"/>
    </output>

    <time>
        <begin value="0"/>
    </time>

    <report>
        <verbose value="true"/>
        <no-step-log value="true"/>
    </report>

    <traci_server>
        <remote-port value="8873"/>
    </traci_server>

    <gui_only>
        <gui-settings-file value="nylandsvejPlainTest.set.xml"/>
    </gui_only>

</configuration>
-->

<tripinfos xmlns:xsi="http://www.w3.org/2001/XMLSchema-instance" xsi:noNamespaceSchemaLocation="http://sumo.dlr.de/xsd/tripinfo_file.xsd">
    <tripinfo id="car0" depart="0.00" departLane="Road2_2" departPos="3.10" departSpeed="0.00" departDelay="0.00" arrival="75.00" arrivalLane="Road1_out_0" arrivalPos="486.40" arrivalSpeed="15.53" duration="75.00" routeLength="996.90" waitingTime="0.00" waitingCount="0" stopTime="0.00" timeLoss="11.79" rerouteNo="0" devices="tripinfo_car0" vType="Car" speedFactor="1.06" vaporized=""/>
    <tripinfo id="car3" depart="5.00" departLane="Road4_1" departPos="3.10" departSpeed="0.00" departDelay="2.00" arrival="80.00" arrivalLane="Road3_out_1" arrivalPos="486.40" arrivalSpeed="15.73" duration="75.00" routeLength="996.90" waitingTime="0.00" waitingCount="0" stopTime="0.00" timeLoss="11.74" rerouteNo="0" devices="tripinfo_car3" vType="Car" speedFactor="1.08" vaporized=""/>
    <tripinfo id="car10" depart="8.00" departLane="Road3_2" departPos="3.10" departSpeed="0.00" departDelay="0.00" arrival="81.00" arrivalLane="Road4_out_0" arrivalPos="486.40" arrivalSpeed="15.78" duration="73.00" routeLength="996.90" waitingTime="0.00" waitingCount="0" stopTime="0.00" timeLoss="10.31" rerouteNo="0" devices="tripinfo_car10" vType="Car" speedFactor="1.09" vaporized=""/>
    <tripinfo id="car13" depart="12.00" departLane="Road3_0" departPos="3.10" departSpeed="0.00" departDelay="0.00" arrival="86.00" arrivalLane="Road4_out_0" arrivalPos="486.40" arrivalSpeed="15.57" duration="74.00" routeLength="996.90" waitingTime="0.00" waitingCount="0" stopTime="0.00" timeLoss="11.27" rerouteNo="0" devices="tripinfo_car13" vType="Car" speedFactor="1.12" vaporized=""/>
    <tripinfo id="car2" depart="1.00" departLane="Road4_1" departPos="3.10" departSpeed="0.00" departDelay="0.00" arrival="87.00" arrivalLane="Road3_out_0" arrivalPos="486.40" arrivalSpeed="15.61" duration="86.00" routeLength="996.90" waitingTime="0.00" waitingCount="0" stopTime="0.00" timeLoss="23.35" rerouteNo="0" devices="tripinfo_car2" vType="Car" speedFactor="1.01" vaporized=""/>
    <tripinfo id="car1" depart="1.00" departLane="Road4_0" departPos="3.10" departSpeed="0.00" departDelay="0.00" arrival="89.00" arrivalLane="Road3_out_0" arrivalPos="486.40" arrivalSpeed="14.85" duration="88.00" routeLength="996.90" waitingTime="0.00" waitingCount="0" stopTime="0.00" timeLoss="21.26" rerouteNo="0" devices="tripinfo_car1" vType="Car" speedFactor="0.94" vaporized=""/>
    <tripinfo id="car7" depart="9.00" departLane="Road4_0" departPos="3.10" departSpeed="0.00" departDelay="3.00" arrival="90.00" arrivalLane="Road3_out_2" arrivalPos="486.40" arrivalSpeed="13.73" duration="81.00" routeLength="996.90" waitingTime="0.00" waitingCount="0" stopTime="0.00" timeLoss="9.88" rerouteNo="0" devices="tripinfo_car7" vType="Car" speedFactor="0.89" vaporized=""/>
    <tripinfo id="car8" depart="13.00" departLane="Road4_0" departPos="3.10" departSpeed="0.00" departDelay="7.00" arrival="91.00" arrivalLane="Road3_out_1" arrivalPos="486.40" arrivalSpeed="14.65" duration="78.00" routeLength="996.90" waitingTime="0.00" waitingCount="0" stopTime="0.00" timeLoss="10.60" rerouteNo="0" devices="tripinfo_car8" vType="Car" speedFactor="0.94" vaporized=""/>
    <tripinfo id="car4" depart="5.00" departLane="Road4_0" departPos="3.10" departSpeed="0.00" departDelay="0.00" arrival="91.00" arrivalLane="Road3_out_0" arrivalPos="486.40" arrivalSpeed="15.98" duration="86.00" routeLength="996.90" waitingTime="0.00" waitingCount="0" stopTime="0.00" timeLoss="22.85" rerouteNo="0" devices="tripinfo_car4" vType="Car" speedFactor="1.03" vaporized=""/>
    <tripinfo id="car17" depart="16.00" departLane="Road3_1" departPos="3.10" departSpeed="0.00" departDelay="0.00" arrival="93.00" arrivalLane="Road4_out_0" arrivalPos="486.40" arrivalSpeed="14.72" duration="77.00" routeLength="996.90" waitingTime="0.00" waitingCount="0" stopTime="0.00" timeLoss="10.47" rerouteNo="0" devices="tripinfo_car17" vType="Car" speedFactor="0.94" vaporized=""/>
    <tripinfo id="car22" depart="19.00" departLane="Road3_2" departPos="3.10" departSpeed="0.00" departDelay="0.00" arrival="94.00" arrivalLane="Road4_out_1" arrivalPos="486.40" arrivalSpeed="15.50" duration="75.00" routeLength="996.90" waitingTime="0.00" waitingCount="0" stopTime="0.00" timeLoss="10.73" rerouteNo="0" devices="tripinfo_car22" vType="Car" speedFactor="0.98" vaporized=""/>
    <tripinfo id="car18" depart="17.00" departLane="Road3_0" departPos="3.10" departSpeed="0.00" departDelay="0.00" arrival="95.00" arrivalLane="Road4_out_0" arrivalPos="486.40" arrivalSpeed="14.86" duration="78.00" routeLength="996.90" waitingTime="0.00" waitingCount="0" stopTime="0.00" timeLoss="10.81" rerouteNo="0" devices="tripinfo_car18" vType="Car" speedFactor="0.94" vaporized=""/>
    <tripinfo id="car16" depart="15.00" departLane="Road4_2" departPos="3.10" departSpeed="0.00" departDelay="0.00" arrival="96.00" arrivalLane="Road3_out_1" arrivalPos="486.40" arrivalSpeed="13.71" duration="81.00" routeLength="996.90" waitingTime="0.00" waitingCount="0" stopTime="0.00" timeLoss="9.21" rerouteNo="0" devices="tripinfo_car16" vType="Car" speedFactor="0.88" vaporized=""/>
    <tripinfo id="car5" depart="10.00" departLane="Road4_1" departPos="3.10" departSpeed="0.00" departDelay="5.00" arrival="96.00" arrivalLane="Road3_out_0" arrivalPos="486.40" arrivalSpeed="12.96" duration="86.00" routeLength="996.90" waitingTime="0.00" waitingCount="0" stopTime="0.00" timeLoss="10.36" rerouteNo="0" devices="tripinfo_car5" vType="Car" speedFactor="0.83" vaporized=""/>
    <tripinfo id="car34" depart="26.00" departLane="Road4_2" departPos="3.10" departSpeed="0.00" departDelay="0.00" arrival="100.00" arrivalLane="Road3_out_1" arrivalPos="486.40" arrivalSpeed="15.76" duration="74.00" routeLength="996.90" waitingTime="0.00" waitingCount="0" stopTime="0.00" timeLoss="11.11" rerouteNo="0" devices="tripinfo_car34" vType="Car" speedFactor="0.99" vaporized=""/>
    <tripinfo id="car33" depart="26.00" departLane="Road3_1" departPos="3.10" departSpeed="0.00" departDelay="0.00" arrival="100.00" arrivalLane="Road4_out_0" arrivalPos="486.40" arrivalSpeed="15.77" duration="74.00" routeLength="996.90" waitingTime="0.00" waitingCount="0" stopTime="0.00" timeLoss="11.10" rerouteNo="0" devices="tripinfo_car33" vType="Car" speedFactor="1.17" vaporized=""/>
    <tripinfo id="car9" depart="17.00" departLane="Road4_0" departPos="3.10" departSpeed="0.00" departDelay="10.00" arrival="101.00" arrivalLane="Road3_out_0" arrivalPos="486.40" arrivalSpeed="13.26" duration="84.00" routeLength="996.90" waitingTime="0.00" waitingCount="0" stopTime="0.00" timeLoss="10.52" rerouteNo="0" devices="tripinfo_car9" vType="Car" speedFactor="0.86" vaporized=""/>
    <tripinfo id="car30" depart="28.00" departLane="Road3_2" departPos="3.10" departSpeed="0.00" departDelay="4.00" arrival="102.00" arrivalLane="Road4_out_1" arrivalPos="486.40" arrivalSpeed="15.67" duration="74.00" routeLength="996.90" waitingTime="0.00" waitingCount="0" stopTime="0.00" timeLoss="11.01" rerouteNo="0" devices="tripinfo_car30" vType="Car" speedFactor="1.18" vaporized=""/>
    <tripinfo id="car26" depart="23.00" departLane="Road3_2" departPos="3.10" departSpeed="0.00" departDelay="1.00" arrival="102.00" arrivalLane="Road4_out_0" arrivalPos="486.40" arrivalSpeed="14.47" duration="79.00" routeLength="996.90" waitingTime="0.00" waitingCount="0" stopTime="0.00" timeLoss="10.80" rerouteNo="0" devices="tripinfo_car26" vType="Car" speedFactor="0.92" vaporized=""/>
    <tripinfo id="car37" depart="27.00" departLane="Road3_0" departPos="3.10" departSpeed="0.00" departDelay="0.00" arrival="104.00" arrivalLane="Road4_out_0" arrivalPos="486.40" arrivalSpeed="15.52" duration="77.00" routeLength="996.90" waitingTime="0.00" waitingCount="0" stopTime="0.00" timeLoss="13.91" rerouteNo="0" devices="tripinfo_car37" vType="Car" speedFactor="1.18" vaporized=""/>
    <tripinfo id="car38" depart="30.00" departLane="Road3_1" departPos="3.10" departSpeed="0.00" departDelay="2.00" arrival="105.00" arrivalLane="Road4_out_1" arrivalPos="486.40" arrivalSpeed="15.76" duration="75.00" routeLength="996.90" waitingTime="0.00" waitingCount="0" stopTime="0.00" timeLoss="12.05" rerouteNo="0" devices="tripinfo_car38" vType="Car" speedFactor="1.10" vaporized=""/>
    <tripinfo id="car42" depart="30.00" departLane="Road4_0" departPos="3.10" departSpeed="0.00" departDelay="0.00" arrival="105.00" arrivalLane="Road3_out_0" arrivalPos="486.40" arrivalSpeed="15.59" duration="75.00" routeLength="996.90" waitingTime="0.00" waitingCount="0" stopTime="0.00" timeLoss="11.92" rerouteNo="0" devices="tripinfo_car42" vType="Car" speedFactor="1.09" vaporized=""/>
    <tripinfo id="car45" depart="33.00" departLane="Road4_2" departPos="3.10" departSpeed="0.00" departDelay="0.00" arrival="106.00" arrivalLane="Road3_out_0" arrivalPos="486.40" arrivalSpeed="15.94" duration="73.00" routeLength="996.90" waitingTime="0.00" waitingCount="0" stopTime="0.00" timeLoss="10.50" rerouteNo="0" devices="tripinfo_car45" vType="Car" speedFactor="1.09" vaporized=""/>
    <tripinfo id="car43" depart="33.00" departLane="Road3_2" departPos="3.10" departSpeed="0.00" departDelay="2.00" arrival="108.00" arrivalLane="Road4_out_0" arrivalPos="486.40" arrivalSpeed="15.53" duration="75.00" routeLength="996.90" waitingTime="0.00" waitingCount="0" stopTime="0.00" timeLoss="12.12" rerouteNo="0" devices="tripinfo_car43" vType="Car" speedFactor="1.04" vaporized=""/>
    <tripinfo id="car58" depart="39.00" departLane="Road4_1" departPos="3.10" departSpeed="0.00" departDelay="0.00" arrival="112.00" arrivalLane="Road3_out_0" arrivalPos="486.40" arrivalSpeed="15.79" duration="73.00" routeLength="996.90" waitingTime="0.00" waitingCount="0" stopTime="0.00" timeLoss="10.10" rerouteNo="0" devices="tripinfo_car58" vType="Car" speedFactor="1.02" vaporized=""/>
    <tripinfo id="car57" depart="38.00" departLane="Road3_2" departPos="3.10" departSpeed="0.00" departDelay="0.00" arrival="112.00" arrivalLane="Road4_out_0" arrivalPos="486.40" arrivalSpeed="15.98" duration="74.00" routeLength="996.90" waitingTime="0.00" waitingCount="0" stopTime="0.00" timeLoss="10.73" rerouteNo="0" devices="tripinfo_car57" vType="Car" speedFactor="1.14" vaporized=""/>
    <tripinfo id="car61" depart="42.00" departLane="Road3_1" departPos="3.10" departSpeed="0.00" departDelay="0.00" arrival="116.00" arrivalLane="Road4_out_0" arrivalPos="486.40" arrivalSpeed="15.78" duration="74.00" routeLength="996.90" waitingTime="0.00" waitingCount="0" stopTime="0.00" timeLoss="11.65" rerouteNo="0" devices="tripinfo_car61" vType="Car" speedFactor="1.12" vaporized=""/>
    <tripinfo id="car48" depart="35.00" departLane="Road4_0" departPos="3.10" departSpeed="0.00" departDelay="0.00" arrival="117.00" arrivalLane="Road3_out_0" arrivalPos="486.40" arrivalSpeed="13.79" duration="82.00" routeLength="996.90" waitingTime="0.00" waitingCount="0" stopTime="0.00" timeLoss="10.07" rerouteNo="0" devices="tripinfo_car48" vType="Car" speedFactor="0.88" vaporized=""/>
    <tripinfo id="car64" depart="43.00" departLane="Road4_1" departPos="3.10" departSpeed="0.00" departDelay="0.00" arrival="121.00" arrivalLane="Road3_out_0" arrivalPos="486.40" arrivalSpeed="14.75" duration="78.00" routeLength="996.90" waitingTime="0.00" waitingCount="0" stopTime="0.00" timeLoss="11.01" rerouteNo="0" devices="tripinfo_car64" vType="Car" speedFactor="0.94" vaporized=""/>
    <tripinfo id="car21" depart="18.00" departLane="Road2_2" departPos="3.10" departSpeed="0.00" departDelay="0.00" arrival="131.00" arrivalLane="Road1_out_0" arrivalPos="486.40" arrivalSpeed="15.80" duration="113.00" routeLength="996.90" waitingTime="27.00" waitingCount="1" stopTime="0.00" timeLoss="50.32" rerouteNo="0" devices="tripinfo_car21" vType="Car" speedFactor="1.01" vaporized=""/>
    <tripinfo id="car6" depart="6.00" departLane="Road1_0" departPos="3.10" departSpeed="0.00" departDelay="0.00" arrival="132.00" arrivalLane="Road2_out_0" arrivalPos="486.40" arrivalSpeed="15.54" duration="126.00" routeLength="996.90" waitingTime="40.00" waitingCount="1" stopTime="0.00" timeLoss="63.57" rerouteNo="0" devices="tripinfo_car6" vType="Car" speedFactor="1.05" vaporized=""/>
    <tripinfo id="car28" depart="23.00" departLane="Road2_2" departPos="3.10" departSpeed="0.00" departDelay="0.00" arrival="132.00" arrivalLane="Road1_out_1" arrivalPos="486.40" arrivalSpeed="15.78" duration="109.00" routeLength="996.90" waitingTime="21.00" waitingCount="1" stopTime="0.00" timeLoss="46.23" rerouteNo="0" devices="tripinfo_car28" vType="Car" speedFactor="1.13" vaporized=""/>
    <tripinfo id="car12" depart="11.00" departLane="Road1_1" departPos="3.10" departSpeed="0.00" departDelay="0.00" arrival="132.00" arrivalLane="Road2_out_1" arrivalPos="486.40" arrivalSpeed="15.75" duration="121.00" routeLength="996.90" waitingTime="35.00" waitingCount="1" stopTime="0.00" timeLoss="57.73" rerouteNo="0" devices="tripinfo_car12" vType="Car" speedFactor="1.05" vaporized=""/>
    <tripinfo id="car19" depart="17.00" departLane="Road1_2" departPos="3.10" departSpeed="0.00" departDelay="0.00" arrival="133.00" arrivalLane="Road2_out_2" arrivalPos="486.40" arrivalSpeed="15.51" duration="116.00" routeLength="996.90" waitingTime="29.00" waitingCount="1" stopTime="0.00" timeLoss="52.79" rerouteNo="0" devices="tripinfo_car19" vType="Car" speedFactor="1.16" vaporized=""/>
    <tripinfo id="car32" depart="32.00" departLane="Road2_2" departPos="3.10" departSpeed="0.00" departDelay="7.00" arrival="134.00" arrivalLane="Road1_out_2" arrivalPos="486.40" arrivalSpeed="15.81" duration="102.00" routeLength="996.90" waitingTime="15.00" waitingCount="1" stopTime="0.00" timeLoss="39.35" rerouteNo="0" devices="tripinfo_car32" vType="Car" speedFactor="1.01" vaporized=""/>
    <tripinfo id="car35" depart="26.00" departLane="Road1_2" departPos="3.10" departSpeed="0.00" departDelay="0.00" arrival="134.00" arrivalLane="Road2_out_2" arrivalPos="486.40" arrivalSpeed="15.98" duration="108.00" routeLength="996.90" waitingTime="20.00" waitingCount="1" stopTime="0.00" timeLoss="45.55" rerouteNo="0" devices="tripinfo_car35" vType="Car" speedFactor="1.02" vaporized=""/>
    <tripinfo id="car15" depart="13.00" departLane="Road2_1" departPos="3.10" departSpeed="0.00" departDelay="0.00" arrival="134.00" arrivalLane="Road1_out_0" arrivalPos="486.40" arrivalSpeed="14.39" duration="121.00" routeLength="996.90" waitingTime="31.00" waitingCount="1" stopTime="0.00" timeLoss="53.59" rerouteNo="0" devices="tripinfo_car15" vType="Car" speedFactor="0.93" vaporized=""/>
    <tripinfo id="car11" depart="11.00" departLane="Road1_0" departPos="3.10" departSpeed="0.00" departDelay="0.00" arrival="134.00" arrivalLane="Road2_out_0" arrivalPos="486.40" arrivalSpeed="15.62" duration="123.00" routeLength="996.90" waitingTime="37.00" waitingCount="1" stopTime="0.00" timeLoss="60.31" rerouteNo="0" devices="tripinfo_car11" vType="Car" speedFactor="1.03" vaporized=""/>
    <tripinfo id="car20" depart="18.00" departLane="Road1_0" departPos="3.10" departSpeed="0.00" departDelay="0.00" arrival="134.00" arrivalLane="Road2_out_1" arrivalPos="486.40" arrivalSpeed="15.62" duration="116.00" routeLength="996.90" waitingTime="29.00" waitingCount="1" stopTime="0.00" timeLoss="52.87" rerouteNo="0" devices="tripinfo_car20" vType="Car" speedFactor="1.02" vaporized=""/>
    <tripinfo id="car31" depart="25.00" departLane="Road2_0" departPos="3.10" departSpeed="0.00" departDelay="0.00" arrival="135.00" arrivalLane="Road1_out_1" arrivalPos="486.40" arrivalSpeed="15.84" duration="110.00" routeLength="996.90" waitingTime="20.00" waitingCount="1" stopTime="0.00" timeLoss="47.19" rerouteNo="0" devices="tripinfo_car31" vType="Car" speedFactor="1.15" vaporized=""/>
    <tripinfo id="car27" depart="23.00" departLane="Road2_1" departPos="3.10" departSpeed="0.00" departDelay="0.00" arrival="136.00" arrivalLane="Road1_out_0" arrivalPos="486.40" arrivalSpeed="14.85" duration="113.00" routeLength="996.90" waitingTime="25.00" waitingCount="1" stopTime="0.00" timeLoss="46.64" rerouteNo="0" devices="tripinfo_car27" vType="Car" speedFactor="0.95" vaporized=""/>
    <tripinfo id="car14" depart="15.00" departLane="Road1_1" departPos="3.10" departSpeed="0.00" departDelay="3.00" arrival="136.00" arrivalLane="Road2_out_0" arrivalPos="486.40" arrivalSpeed="15.46" duration="121.00" routeLength="996.90" waitingTime="32.00" waitingCount="1" stopTime="0.00" timeLoss="57.94" rerouteNo="0" devices="tripinfo_car14" vType="Car" speedFactor="0.99" vaporized=""/>
    <tripinfo id="car40" depart="29.00" departLane="Road1_0" departPos="3.10" departSpeed="0.00" departDelay="0.00" arrival="136.00" arrivalLane="Road2_out_1" arrivalPos="486.40" arrivalSpeed="15.58" duration="107.00" routeLength="996.90" waitingTime="19.00" waitingCount="1" stopTime="0.00" timeLoss="44.28" rerouteNo="0" devices="tripinfo_car40" vType="Car" speedFactor="1.03" vaporized=""/>
    <tripinfo id="car41" depart="37.00" departLane="Road2_2" departPos="3.10" departSpeed="0.00" departDelay="8.00" arrival="137.00" arrivalLane="Road1_out_2" arrivalPos="486.40" arrivalSpeed="15.12" duration="100.00" routeLength="996.90" waitingTime="12.00" waitingCount="1" stopTime="0.00" timeLoss="34.67" rerouteNo="0" devices="tripinfo_car41" vType="Car" speedFactor="0.96" vaporized=""/>
    <tripinfo id="car36" depart="30.00" departLane="Road2_0" departPos="3.10" departSpeed="0.00" departDelay="3.00" arrival="137.00" arrivalLane="Road1_out_1" arrivalPos="486.40" arrivalSpeed="15.48" duration="107.00" routeLength="996.90" waitingTime="14.00" waitingCount="1" stopTime="0.00" timeLoss="42.72" rerouteNo="0" devices="tripinfo_car36" vType="Car" speedFactor="0.97" vaporized=""/>
    <tripinfo id="car29" depart="27.00" departLane="Road2_2" departPos="3.10" departSpeed="0.00" departDelay="3.00" arrival="138.00" arrivalLane="Road1_out_0" arrivalPos="486.40" arrivalSpeed="14.85" duration="111.00" routeLength="996.90" waitingTime="21.00" waitingCount="1" stopTime="0.00" timeLoss="43.99" rerouteNo="0" devices="tripinfo_car29" vType="Car" speedFactor="0.93" vaporized=""/>
    <tripinfo id="car53" depart="37.00" departLane="Road1_2" departPos="3.10" departSpeed="0.00" departDelay="0.00" arrival="138.00" arrivalLane="Road2_out_1" arrivalPos="486.40" arrivalSpeed="15.91" duration="101.00" routeLength="996.90" waitingTime="14.00" waitingCount="1" stopTime="0.00" timeLoss="38.39" rerouteNo="0" devices="tripinfo_car53" vType="Car" speedFactor="1.10" vaporized=""/>
    <tripinfo id="car60" depart="42.00" departLane="Road2_1" departPos="3.10" departSpeed="0.00" departDelay="0.00" arrival="139.00" arrivalLane="Road1_out_2" arrivalPos="486.40" arrivalSpeed="15.65" duration="97.00" routeLength="996.90" waitingTime="9.00" waitingCount="1" stopTime="0.00" timeLoss="33.99" rerouteNo="0" devices="tripinfo_car60" vType="Car" speedFactor="1.08" vaporized=""/>
    <tripinfo id="car44" depart="33.00" departLane="Road1_2" departPos="3.10" departSpeed="0.00" departDelay="0.00" arrival="139.00" arrivalLane="Road2_out_0" arrivalPos="486.40" arrivalSpeed="15.67" duration="106.00" routeLength="996.90" waitingTime="18.00" waitingCount="1" stopTime="0.00" timeLoss="42.77" rerouteNo="0" devices="tripinfo_car44" vType="Car" speedFactor="1.04" vaporized=""/>
    <tripinfo id="car52" depart="37.00" departLane="Road2_1" departPos="3.10" departSpeed="0.00" departDelay="0.00" arrival="139.00" arrivalLane="Road1_out_1" arrivalPos="486.40" arrivalSpeed="15.79" duration="102.00" routeLength="996.90" waitingTime="13.00" waitingCount="1" stopTime="0.00" timeLoss="38.94" rerouteNo="0" devices="tripinfo_car52" vType="Car" speedFactor="1.02" vaporized=""/>
    <tripinfo id="car55" depart="38.00" departLane="Road1_1" departPos="3.10" departSpeed="0.00" departDelay="0.00" arrival="140.00" arrivalLane="Road2_out_2" arrivalPos="486.40" arrivalSpeed="15.61" duration="102.00" routeLength="996.90" waitingTime="13.00" waitingCount="1" stopTime="0.00" timeLoss="38.81" rerouteNo="0" devices="tripinfo_car55" vType="Car" speedFactor="1.00" vaporized=""/>
    <tripinfo id="car46" depart="34.00" departLane="Road1_0" departPos="3.10" departSpeed="0.00" departDelay="0.00" arrival="140.00" arrivalLane="Road2_out_1" arrivalPos="486.40" arrivalSpeed="15.95" duration="106.00" routeLength="996.90" waitingTime="16.00" waitingCount="1" stopTime="0.00" timeLoss="43.19" rerouteNo="0" devices="tripinfo_car46" vType="Car" speedFactor="1.00" vaporized=""/>
    <tripinfo id="car39" depart="34.00" departLane="Road2_0" departPos="3.10" departSpeed="0.00" departDelay="5.00" arrival="141.00" arrivalLane="Road1_out_0" arrivalPos="486.40" arrivalSpeed="13.92" duration="107.00" routeLength="996.90" waitingTime="15.00" waitingCount="1" stopTime="0.00" timeLoss="37.78" rerouteNo="0" devices="tripinfo_car39" vType="Car" speedFactor="0.90" vaporized=""/>
    <tripinfo id="car24" depart="21.00" departLane="Road1_1" departPos="3.10" departSpeed="0.00" departDelay="0.00" arrival="141.00" arrivalLane="Road2_out_0" arrivalPos="486.40" arrivalSpeed="13.11" duration="120.00" routeLength="996.90" waitingTime="24.00" waitingCount="1" stopTime="0.00" timeLoss="43.88" rerouteNo="0" devices="tripinfo_car24" vType="Car" speedFactor="0.83" vaporized=""/>
    <tripinfo id="car63" depart="48.00" departLane="Road1_1" departPos="3.10" departSpeed="0.00" departDelay="5.00" arrival="142.00" arrivalLane="Road2_out_2" arrivalPos="486.40" arrivalSpeed="15.35" duration="94.00" routeLength="996.90" waitingTime="3.00" waitingCount="1" stopTime="0.00" timeLoss="29.96" rerouteNo="0" devices="tripinfo_car63" vType="Car" speedFactor="0.99" vaporized=""/>
    <tripinfo id="car66" depart="46.00" departLane="Road2_1" departPos="3.10" departSpeed="0.00" departDelay="2.00" arrival="142.00" arrivalLane="Road1_out_1" arrivalPos="486.40" arrivalSpeed="14.32" duration="96.00" routeLength="996.90" waitingTime="4.00" waitingCount="1" stopTime="0.00" timeLoss="27.08" rerouteNo="0" devices="tripinfo_car66" vType="Car" speedFactor="0.91" vaporized=""/>
    <tripinfo id="car23" depart="22.00" departLane="Road1_0" departPos="3.10" departSpeed="0.00" departDelay="2.00" arrival="142.00" arrivalLane="Road2_out_1" arrivalPos="486.40" arrivalSpeed="14.13" duration="120.00" routeLength="996.90" waitingTime="24.00" waitingCount="1" stopTime="0.00" timeLoss="49.70" rerouteNo="0" devices="tripinfo_car23" vType="Car" speedFactor="0.89" vaporized=""/>
    <tripinfo id="car67" depart="50.00" departLane="Road2_1" departPos="3.10" departSpeed="0.00" departDelay="5.00" arrival="143.00" arrivalLane="Road1_out_2" arrivalPos="486.40" arrivalSpeed="14.59" duration="93.00" routeLength="996.90" waitingTime="0.00" waitingCount="0" stopTime="0.00" timeLoss="24.40" rerouteNo="0" devices="tripinfo_car67" vType="Car" speedFactor="0.91" vaporized=""/>
    <tripinfo id="car83" depart="58.00" departLane="Road1_1" departPos="3.10" departSpeed="0.00" departDelay="0.00" arrival="144.00" arrivalLane="Road2_out_2" arrivalPos="486.40" arrivalSpeed="15.42" duration="86.00" routeLength="996.90" waitingTime="0.00" waitingCount="0" stopTime="0.00" timeLoss="20.88" rerouteNo="0" devices="tripinfo_car83" vType="Car" speedFactor="0.97" vaporized=""/>
    <tripinfo id="car25" depart="26.00" departLane="Road1_1" departPos="3.10" departSpeed="0.00" departDelay="4.00" arrival="144.00" arrivalLane="Road2_out_0" arrivalPos="486.40" arrivalSpeed="13.77" duration="118.00" routeLength="996.90" waitingTime="23.00" waitingCount="1" stopTime="0.00" timeLoss="45.90" rerouteNo="0" devices="tripinfo_car25" vType="Car" speedFactor="0.87" vaporized=""/>
    <tripinfo id="car75" depart="50.00" departLane="Road2_2" departPos="3.10" departSpeed="0.00" departDelay="0.00" arrival="144.00" arrivalLane="Road1_out_1" arrivalPos="486.40" arrivalSpeed="15.72" duration="94.00" routeLength="996.90" waitingTime="3.00" waitingCount="1" stopTime="0.00" timeLoss="30.00" rerouteNo="0" devices="tripinfo_car75" vType="Car" speedFactor="0.98" vaporized=""/>
    <tripinfo id="car65" depart="43.00" departLane="Road1_2" departPos="3.10" departSpeed="0.00" departDelay="0.00" arrival="144.00" arrivalLane="Road2_out_1" arrivalPos="486.40" arrivalSpeed="13.94" duration="101.00" routeLength="996.90" waitingTime="8.00" waitingCount="1" stopTime="0.00" timeLoss="29.93" rerouteNo="0" devices="tripinfo_car65" vType="Car" speedFactor="0.88" vaporized=""/>
    <tripinfo id="car54" depart="51.00" departLane="Road2_0" departPos="3.10" departSpeed="0.00" departDelay="13.00" arrival="145.00" arrivalLane="Road1_out_2" arrivalPos="486.40" arrivalSpeed="15.60" duration="94.00" routeLength="996.90" waitingTime="0.00" waitingCount="0" stopTime="0.00" timeLoss="30.76" rerouteNo="0" devices="tripinfo_car54" vType="Car" speedFactor="1.00" vaporized=""/>
    <tripinfo id="car88" depart="62.00" departLane="Road1_1" departPos="3.10" departSpeed="0.00" departDelay="0.00" arrival="145.00" arrivalLane="Road2_out_2" arrivalPos="486.40" arrivalSpeed="15.65" duration="83.00" routeLength="996.90" waitingTime="0.00" waitingCount="0" stopTime="0.00" timeLoss="20.52" rerouteNo="0" devices="tripinfo_car88" vType="Car" speedFactor="1.01" vaporized=""/>
    <tripinfo id="car49" depart="38.00" departLane="Road2_0" departPos="3.10" departSpeed="0.00" departDelay="2.00" arrival="145.00" arrivalLane="Road1_out_0" arrivalPos="486.40" arrivalSpeed="13.49" duration="107.00" routeLength="996.90" waitingTime="10.00" waitingCount="1" stopTime="0.00" timeLoss="33.32" rerouteNo="0" devices="tripinfo_car49" vType="Car" speedFactor="0.85" vaporized=""/>
    <tripinfo id="car47" depart="38.00" departLane="Road1_0" departPos="3.10" departSpeed="0.00" departDelay="3.00" arrival="145.00" arrivalLane="Road2_out_0" arrivalPos="486.40" arrivalSpeed="14.35" duration="107.00" routeLength="996.90" waitingTime="15.00" waitingCount="1" stopTime="0.00" timeLoss="37.62" rerouteNo="0" devices="tripinfo_car47" vType="Car" speedFactor="0.90" vaporized=""/>
    <tripinfo id="car71" depart="54.00" departLane="Road2_1" departPos="3.10" departSpeed="0.00" departDelay="7.00" arrival="145.00" arrivalLane="Road1_out_1" arrivalPos="486.40" arrivalSpeed="15.42" duration="91.00" routeLength="996.90" waitingTime="0.00" waitingCount="0" stopTime="0.00" timeLoss="26.76" rerouteNo="0" devices="tripinfo_car71" vType="Car" speedFactor="0.97" vaporized=""/>
    <tripinfo id="car84" depart="58.00" departLane="Road2_2" departPos="3.10" departSpeed="0.00" departDelay="0.00" arrival="146.00" arrivalLane="Road1_out_2" arrivalPos="486.40" arrivalSpeed="15.42" duration="88.00" routeLength="996.90" waitingTime="0.00" waitingCount="0" stopTime="0.00" timeLoss="25.27" rerouteNo="0" devices="tripinfo_car84" vType="Car" speedFactor="1.15" vaporized=""/>
    <tripinfo id="car70" depart="52.00" departLane="Road1_1" departPos="3.10" departSpeed="0.00" departDelay="5.00" arrival="146.00" arrivalLane="Road2_out_1" arrivalPos="486.40" arrivalSpeed="15.33" duration="94.00" routeLength="996.90" waitingTime="2.00" waitingCount="1" stopTime="0.00" timeLoss="30.77" rerouteNo="0" devices="tripinfo_car70" vType="Car" speedFactor="1.02" vaporized=""/>
    <tripinfo id="car50" depart="42.00" departLane="Road2_0" departPos="3.10" departSpeed="0.00" departDelay="6.00" arrival="147.00" arrivalLane="Road1_out_0" arrivalPos="486.40" arrivalSpeed="13.41" duration="105.00" routeLength="996.90" waitingTime="7.00" waitingCount="1" stopTime="0.00" timeLoss="31.35" rerouteNo="0" devices="tripinfo_car50" vType="Car" speedFactor="0.85" vaporized=""/>
    <tripinfo id="car56" depart="43.00" departLane="Road1_1" departPos="3.10" departSpeed="0.00" departDelay="5.00" arrival="147.00" arrivalLane="Road2_out_0" arrivalPos="486.40" arrivalSpeed="13.98" duration="104.00" routeLength="996.90" waitingTime="10.00" waitingCount="1" stopTime="0.00" timeLoss="34.10" rerouteNo="0" devices="tripinfo_car56" vType="Car" speedFactor="0.90" vaporized=""/>
    <tripinfo id="car76" depart="59.00" departLane="Road2_1" departPos="3.10" departSpeed="0.00" departDelay="6.00" arrival="147.00" arrivalLane="Road1_out_1" arrivalPos="486.40" arrivalSpeed="15.51" duration="88.00" routeLength="996.90" waitingTime="0.00" waitingCount="0" stopTime="0.00" timeLoss="25.05" rerouteNo="0" devices="tripinfo_car76" vType="Car" speedFactor="1.03" vaporized=""/>
    <tripinfo id="car102" depart="70.00" departLane="Road1_0" departPos="3.10" departSpeed="0.00" departDelay="0.00" arrival="147.00" arrivalLane="Road2_out_1" arrivalPos="486.40" arrivalSpeed="15.24" duration="77.00" routeLength="996.90" waitingTime="0.00" waitingCount="0" stopTime="0.00" timeLoss="12.26" rerouteNo="0" devices="tripinfo_car102" vType="Car" speedFactor="0.97" vaporized=""/>