<?xml version="1.0" encoding="UTF-8"?>

<!-- generated on Tue 02 Jul 2019 11:08:30 AM CEST by Eclipse SUMO GUI Version 1.2.0
<configuration xmlns:xsi="http://www.w3.org/2001/XMLSchema-instance" xsi:noNamespaceSchemaLocation="http://sumo.dlr.de/xsd/sumoConfiguration.xsd">

    <input>
        <net-file value="NetFile.net.xml"/>
        <route-files value="TrafficLoads/HighTrafficLoad.rou.xml"/>
    </input>

    <output>
        <emission-output value="results/emission7.xml"/>
        <tripinfo-output value="results/tripinfo7.xml"/>
    </output>

    <time>
        <begin value="0"/>
    </time>

    <report>
        <verbose value="true"/>
        <no-step-log value="true"/>
    </report>

    <traci_server>
        <remote-port value="8873"/>
    </traci_server>

    <gui_only>
        <gui-settings-file value="nylandsvejPlainTest.set.xml"/>
    </gui_only>

</configuration>
-->

<tripinfos xmlns:xsi="http://www.w3.org/2001/XMLSchema-instance" xsi:noNamespaceSchemaLocation="http://sumo.dlr.de/xsd/tripinfo_file.xsd">
    <tripinfo id="car0" depart="2.00" departLane="Road3_0" departPos="3.10" departSpeed="0.00" departDelay="0.00" arrival="74.00" arrivalLane="Road4_out_0" arrivalPos="492.80" arrivalSpeed="16.00" duration="72.00" routeLength="996.90" waitingTime="0.00" waitingCount="0" stopTime="0.00" timeLoss="10.29" rerouteNo="0" devices="tripinfo_car0" vType="Car@car0" speedFactor="1.00" vaporized=""/>
    <tripinfo id="car3" depart="5.00" departLane="Road4_0" departPos="3.10" departSpeed="0.00" departDelay="0.00" arrival="77.00" arrivalLane="Road3_out_0" arrivalPos="492.80" arrivalSpeed="16.00" duration="72.00" routeLength="996.90" waitingTime="0.00" waitingCount="0" stopTime="0.00" timeLoss="10.97" rerouteNo="0" devices="tripinfo_car3" vType="Car@car3" speedFactor="1.00" vaporized=""/>
    <tripinfo id="car4" depart="6.00" departLane="Road3_0" departPos="3.10" departSpeed="0.00" departDelay="1.00" arrival="79.00" arrivalLane="Road4_out_0" arrivalPos="492.80" arrivalSpeed="16.00" duration="73.00" routeLength="996.90" waitingTime="0.00" waitingCount="0" stopTime="0.00" timeLoss="10.80" rerouteNo="0" devices="tripinfo_car4" vType="Car@car4" speedFactor="1.00" vaporized=""/>
    <tripinfo id="car1" depart="4.00" departLane="Road2_0" departPos="3.10" departSpeed="0.00" departDelay="0.00" arrival="80.00" arrivalLane="Road1_out_0" arrivalPos="492.80" arrivalSpeed="15.00" duration="76.00" routeLength="996.90" waitingTime="0.00" waitingCount="0" stopTime="0.00" timeLoss="11.90" rerouteNo="0" devices="tripinfo_car1" vType="Car@car1" speedFactor="1.00" vaporized=""/>
    <tripinfo id="car2" depart="8.00" departLane="Road2_0" departPos="3.10" departSpeed="0.00" departDelay="4.00" arrival="81.00" arrivalLane="Road1_out_0" arrivalPos="492.80" arrivalSpeed="16.00" duration="73.00" routeLength="996.90" waitingTime="0.00" waitingCount="0" stopTime="0.00" timeLoss="10.89" rerouteNo="0" devices="tripinfo_car2" vType="Car@car2" speedFactor="1.00" vaporized=""/>
    <tripinfo id="car5" depart="8.00" departLane="Road1_0" departPos="3.10" departSpeed="0.00" departDelay="0.00" arrival="83.00" arrivalLane="Road2_out_0" arrivalPos="492.80" arrivalSpeed="16.00" duration="75.00" routeLength="996.90" waitingTime="0.00" waitingCount="0" stopTime="0.00" timeLoss="7.80" rerouteNo="0" devices="tripinfo_car5" vType="Car@car5" speedFactor="1.00" vaporized=""/>
    <tripinfo id="car6" depart="12.00" departLane="Road1_0" departPos="3.10" departSpeed="0.00" departDelay="3.00" arrival="85.00" arrivalLane="Road2_out_0" arrivalPos="492.80" arrivalSpeed="16.00" duration="73.00" routeLength="996.90" waitingTime="0.00" waitingCount="0" stopTime="0.00" timeLoss="10.83" rerouteNo="0" devices="tripinfo_car6" vType="Car@car6" speedFactor="1.00" vaporized=""/>
    <tripinfo id="car7" depart="12.00" departLane="Road4_0" departPos="3.10" departSpeed="0.00" departDelay="0.00" arrival="87.00" arrivalLane="Road3_out_0" arrivalPos="492.80" arrivalSpeed="16.00" duration="75.00" routeLength="996.90" waitingTime="0.00" waitingCount="0" stopTime="0.00" timeLoss="9.07" rerouteNo="0" devices="tripinfo_car7" vType="Car@car7" speedFactor="1.00" vaporized=""/>
    <tripinfo id="car10" depart="15.00" departLane="Road2_0" departPos="3.10" departSpeed="0.00" departDelay="0.00" arrival="87.00" arrivalLane="Road1_out_0" arrivalPos="492.80" arrivalSpeed="16.00" duration="72.00" routeLength="996.90" waitingTime="0.00" waitingCount="0" stopTime="0.00" timeLoss="11.51" rerouteNo="0" devices="tripinfo_car10" vType="Car@car10" speedFactor="1.00" vaporized=""/>
    <tripinfo id="car11" depart="19.00" departLane="Road2_0" departPos="3.10" departSpeed="0.00" departDelay="4.00" arrival="91.00" arrivalLane="Road1_out_0" arrivalPos="492.80" arrivalSpeed="16.00" duration="72.00" routeLength="996.90" waitingTime="0.00" waitingCount="0" stopTime="0.00" timeLoss="9.54" rerouteNo="0" devices="tripinfo_car11" vType="Car@car11" speedFactor="1.00" vaporized=""/>
    <tripinfo id="car9" depart="16.00" departLane="Road1_0" departPos="3.10" departSpeed="0.00" departDelay="4.00" arrival="92.00" arrivalLane="Road2_out_0" arrivalPos="492.80" arrivalSpeed="16.00" duration="76.00" routeLength="996.90" waitingTime="0.00" waitingCount="0" stopTime="0.00" timeLoss="9.69" rerouteNo="0" devices="tripinfo_car9" vType="Car@car9" speedFactor="1.00" vaporized=""/>
    <tripinfo id="car8" depart="16.00" departLane="Road4_0" departPos="3.10" departSpeed="0.00" departDelay="4.00" arrival="93.00" arrivalLane="Road3_out_0" arrivalPos="492.80" arrivalSpeed="15.00" duration="77.00" routeLength="996.90" waitingTime="0.00" waitingCount="0" stopTime="0.00" timeLoss="13.07" rerouteNo="0" devices="tripinfo_car8" vType="Car@car8" speedFactor="1.00" vaporized=""/>
    <tripinfo id="car12" depart="20.00" departLane="Road1_0" departPos="3.10" departSpeed="0.00" departDelay="1.00" arrival="94.00" arrivalLane="Road2_out_0" arrivalPos="492.80" arrivalSpeed="16.00" duration="74.00" routeLength="996.90" waitingTime="0.00" waitingCount="0" stopTime="0.00" timeLoss="11.88" rerouteNo="0" devices="tripinfo_car12" vType="Car@car12" speedFactor="1.00" vaporized=""/>
    <tripinfo id="car13" depart="23.00" departLane="Road2_0" departPos="3.10" departSpeed="0.00" departDelay="3.00" arrival="95.00" arrivalLane="Road1_out_0" arrivalPos="492.80" arrivalSpeed="16.00" duration="72.00" routeLength="996.90" waitingTime="0.00" waitingCount="0" stopTime="0.00" timeLoss="11.18" rerouteNo="0" devices="tripinfo_car13" vType="Car@car13" speedFactor="1.00" vaporized=""/>
    <tripinfo id="car16" depart="22.00" departLane="Road3_0" departPos="3.10" departSpeed="0.00" departDelay="0.00" arrival="96.00" arrivalLane="Road4_out_0" arrivalPos="492.80" arrivalSpeed="16.00" duration="74.00" routeLength="996.90" waitingTime="0.00" waitingCount="0" stopTime="0.00" timeLoss="8.55" rerouteNo="0" devices="tripinfo_car16" vType="Car@car16" speedFactor="1.00" vaporized=""/>
    <tripinfo id="car19" depart="25.00" departLane="Road4_0" departPos="3.10" departSpeed="0.00" departDelay="0.00" arrival="96.00" arrivalLane="Road3_out_0" arrivalPos="492.80" arrivalSpeed="16.00" duration="71.00" routeLength="996.90" waitingTime="0.00" waitingCount="0" stopTime="0.00" timeLoss="11.74" rerouteNo="0" devices="tripinfo_car19" vType="Car@car19" speedFactor="1.00" vaporized=""/>
    <tripinfo id="car15" depart="24.00" departLane="Road1_0" departPos="3.10" departSpeed="0.00" departDelay="2.00" arrival="98.00" arrivalLane="Road2_out_0" arrivalPos="492.80" arrivalSpeed="16.00" duration="74.00" routeLength="996.90" waitingTime="0.00" waitingCount="0" stopTime="0.00" timeLoss="9.03" rerouteNo="0" devices="tripinfo_car15" vType="Car@car15" speedFactor="1.00" vaporized=""/>
    <tripinfo id="car18" depart="26.00" departLane="Road3_0" departPos="3.10" departSpeed="0.00" departDelay="1.00" arrival="100.00" arrivalLane="Road4_out_0" arrivalPos="492.80" arrivalSpeed="16.00" duration="74.00" routeLength="996.90" waitingTime="0.00" waitingCount="0" stopTime="0.00" timeLoss="9.46" rerouteNo="0" devices="tripinfo_car18" vType="Car@car18" speedFactor="1.00" vaporized=""/>
    <tripinfo id="car14" depart="27.00" departLane="Road2_0" departPos="3.10" departSpeed="0.00" departDelay="7.00" arrival="101.00" arrivalLane="Road1_out_0" arrivalPos="492.80" arrivalSpeed="16.00" duration="74.00" routeLength="996.90" waitingTime="0.00" waitingCount="0" stopTime="0.00" timeLoss="10.89" rerouteNo="0" devices="tripinfo_car14" vType="Car@car14" speedFactor="1.00" vaporized=""/>
    <tripinfo id="car17" depart="28.00" departLane="Road1_0" departPos="3.10" departSpeed="0.00" departDelay="4.00" arrival="102.00" arrivalLane="Road2_out_0" arrivalPos="492.80" arrivalSpeed="16.00" duration="74.00" routeLength="996.90" waitingTime="0.00" waitingCount="0" stopTime="0.00" timeLoss="9.81" rerouteNo="0" devices="tripinfo_car17" vType="Car@car17" speedFactor="1.00" vaporized=""/>
    <tripinfo id="car21" depart="29.00" departLane="Road4_0" departPos="3.10" departSpeed="0.00" departDelay="2.00" arrival="102.00" arrivalLane="Road3_out_0